# vtk DataFile Version 3.0
Cell-Centered Data as Point Data
ASCII
DATASET STRUCTURED_GRID
DIMENSIONS 12 12 1
POINTS 144 float
0.000000 1.000000 0.0
0.090909 1.000000 0.0
0.181818 1.000000 0.0
0.272727 1.000000 0.0
0.363636 1.000000 0.0
0.454545 1.000000 0.0
0.545455 1.000000 0.0
0.636364 1.000000 0.0
0.727273 1.000000 0.0
0.818182 1.000000 0.0
0.909091 1.000000 0.0
1.000000 1.000000 0.0
0.000000 0.909091 0.0
0.090909 0.909091 0.0
0.181818 0.909091 0.0
0.272727 0.909091 0.0
0.363636 0.909091 0.0
0.454545 0.909091 0.0
0.545455 0.909091 0.0
0.636364 0.909091 0.0
0.727273 0.909091 0.0
0.818182 0.909091 0.0
0.909091 0.909091 0.0
1.000000 0.909091 0.0
0.000000 0.818182 0.0
0.090909 0.818182 0.0
0.181818 0.818182 0.0
0.272727 0.818182 0.0
0.363636 0.818182 0.0
0.454545 0.818182 0.0
0.545455 0.818182 0.0
0.636364 0.818182 0.0
0.727273 0.818182 0.0
0.818182 0.818182 0.0
0.909091 0.818182 0.0
1.000000 0.818182 0.0
0.000000 0.727273 0.0
0.090909 0.727273 0.0
0.181818 0.727273 0.0
0.272727 0.727273 0.0
0.363636 0.727273 0.0
0.454545 0.727273 0.0
0.545455 0.727273 0.0
0.636364 0.727273 0.0
0.727273 0.727273 0.0
0.818182 0.727273 0.0
0.909091 0.727273 0.0
1.000000 0.727273 0.0
0.000000 0.636364 0.0
0.090909 0.636364 0.0
0.181818 0.636364 0.0
0.272727 0.636364 0.0
0.363636 0.636364 0.0
0.454545 0.636364 0.0
0.545455 0.636364 0.0
0.636364 0.636364 0.0
0.727273 0.636364 0.0
0.818182 0.636364 0.0
0.909091 0.636364 0.0
1.000000 0.636364 0.0
0.000000 0.545455 0.0
0.090909 0.545455 0.0
0.181818 0.545455 0.0
0.272727 0.545455 0.0
0.363636 0.545455 0.0
0.454545 0.545455 0.0
0.545455 0.545455 0.0
0.636364 0.545455 0.0
0.727273 0.545455 0.0
0.818182 0.545455 0.0
0.909091 0.545455 0.0
1.000000 0.545455 0.0
0.000000 0.454545 0.0
0.090909 0.454545 0.0
0.181818 0.454545 0.0
0.272727 0.454545 0.0
0.363636 0.454545 0.0
0.454545 0.454545 0.0
0.545455 0.454545 0.0
0.636364 0.454545 0.0
0.727273 0.454545 0.0
0.818182 0.454545 0.0
0.909091 0.454545 0.0
1.000000 0.454545 0.0
0.000000 0.363636 0.0
0.090909 0.363636 0.0
0.181818 0.363636 0.0
0.272727 0.363636 0.0
0.363636 0.363636 0.0
0.454545 0.363636 0.0
0.545455 0.363636 0.0
0.636364 0.363636 0.0
0.727273 0.363636 0.0
0.818182 0.363636 0.0
0.909091 0.363636 0.0
1.000000 0.363636 0.0
0.000000 0.272727 0.0
0.090909 0.272727 0.0
0.181818 0.272727 0.0
0.272727 0.272727 0.0
0.363636 0.272727 0.0
0.454545 0.272727 0.0
0.545455 0.272727 0.0
0.636364 0.272727 0.0
0.727273 0.272727 0.0
0.818182 0.272727 0.0
0.909091 0.272727 0.0
1.000000 0.272727 0.0
0.000000 0.181818 0.0
0.090909 0.181818 0.0
0.181818 0.181818 0.0
0.272727 0.181818 0.0
0.363636 0.181818 0.0
0.454545 0.181818 0.0
0.545455 0.181818 0.0
0.636364 0.181818 0.0
0.727273 0.181818 0.0
0.818182 0.181818 0.0
0.909091 0.181818 0.0
1.000000 0.181818 0.0
0.000000 0.090909 0.0
0.090909 0.090909 0.0
0.181818 0.090909 0.0
0.272727 0.090909 0.0
0.363636 0.090909 0.0
0.454545 0.090909 0.0
0.545455 0.090909 0.0
0.636364 0.090909 0.0
0.727273 0.090909 0.0
0.818182 0.090909 0.0
0.909091 0.090909 0.0
1.000000 0.090909 0.0
0.000000 -0.000000 0.0
0.090909 -0.000000 0.0
0.181818 -0.000000 0.0
0.272727 -0.000000 0.0
0.363636 -0.000000 0.0
0.454545 -0.000000 0.0
0.545455 -0.000000 0.0
0.636364 -0.000000 0.0
0.727273 -0.000000 0.0
0.818182 -0.000000 0.0
0.909091 -0.000000 0.0
1.000000 -0.000000 0.0
POINT_DATA 144
SCALARS pressure float 1
LOOKUP_TABLE default
0.001519
0.005941
0.011257
0.009832
0.003754
-0.003211
-0.007530
-0.006637
0.002199
0.026473
0.078250
0.112583
0.002916
0.005693
0.009090
0.007327
0.001216
-0.005590
-0.009704
-0.009003
-0.001968
0.015785
0.053739
0.079235
0.003740
0.004240
0.004463
0.001513
-0.004788
-0.011160
-0.014713
-0.014029
-0.009123
-0.000003
0.017135
0.028565
0.003192
0.002655
0.000424
-0.004586
-0.011494
-0.017508
-0.020543
-0.019745
-0.015493
-0.009192
-0.001135
0.003463
0.003272
0.002095
-0.001983
-0.008883
-0.016528
-0.022412
-0.025198
-0.024555
-0.020938
-0.015684
-0.010192
-0.007529
0.004155
0.002626
-0.002428
-0.010388
-0.018543
-0.024422
-0.027090
-0.026539
-0.023273
-0.018287
-0.013073
-0.010639
0.006559
0.004904
-0.000486
-0.008864
-0.017317
-0.023293
-0.025936
-0.025310
-0.021865
-0.016330
-0.010309
-0.007480
0.009854
0.008279
0.003210
-0.004780
-0.013072
-0.019055
-0.021664
-0.020771
-0.016622
-0.009813
-0.002402
0.001034
0.012240
0.010998
0.007064
0.000656
-0.006484
-0.012019
-0.014440
-0.013069
-0.007834
0.000501
0.009093
0.012901
0.012576
0.011771
0.009384
0.005581
0.000941
-0.003260
-0.005182
-0.003245
0.002987
0.012191
0.020685
0.024129
0.011814
0.011259
0.009966
0.008530
0.006613
0.004061
0.002758
0.005145
0.011936
0.021142
0.028443
0.030971
0.011383
0.010886
0.009943
0.009427
0.008651
0.006812
0.005779
0.008335
0.015289
0.024356
0.030959
0.032994
VECTORS velocity float
1.000000 -0.019656 0.0
1.000000 0.000000 0.0
1.000000 0.000000 0.0
1.000000 0.000000 0.0
1.000000 0.000000 0.0
1.000000 0.000000 0.0
1.000000 0.000000 0.0
1.000000 0.000000 0.0
1.000000 0.000000 0.0
1.000000 0.000000 0.0
1.000000 0.000000 0.0
0.425451 0.074549 0.0
0.000000 0.000000 0.0
0.017445 0.073871 0.0
0.079652 0.071178 0.0
0.148202 0.069309 0.0
0.207347 0.059403 0.0
0.250633 0.044698 0.0
0.275063 0.028950 0.0
0.283476 0.012985 0.0
0.273389 -0.006863 0.0
0.250732 -0.051765 0.0
0.188135 -0.191980 0.0
0.000000 0.000000 0.0
0.000000 0.000000 0.0
-0.000630 0.079652 0.0
0.043578 0.130757 0.0
0.093830 0.127694 0.0
0.135331 0.102432 0.0
0.159670 0.067717 0.0
0.167371 0.032843 0.0
0.158607 -0.001675 0.0
0.131582 -0.032744 0.0
0.093649 -0.085253 0.0
0.048603 -0.250732 0.0
0.000000 0.000000 0.0
0.000000 0.000000 0.0
0.033745 0.117449 0.0
0.061610 0.165637 0.0
0.090193 0.161062 0.0
0.112179 0.125244 0.0
0.122537 0.076738 0.0
0.123665 0.027887 0.0
0.113687 -0.022804 0.0
0.091284 -0.071820 0.0
0.052396 -0.134744 0.0
0.008515 -0.285630 0.0
0.000000 0.000000 0.0
0.000000 0.000000 0.0
0.022209 0.141262 0.0
0.038361 0.187205 0.0
0.052105 0.178263 0.0
0.060985 0.134776 0.0
0.063381 0.079203 0.0
0.061671 0.023992 0.0
0.053989 -0.034055 0.0
0.042052 -0.094035 0.0
0.019485 -0.168022 0.0
-0.009165 -0.303129 0.0
0.000000 0.000000 0.0
0.000000 0.000000 0.0
0.007194 0.155809 0.0
0.006856 0.195532 0.0
0.007864 0.183687 0.0
0.009348 0.136520 0.0
0.009243 0.077424 0.0
0.008152 0.018495 0.0
0.003834 -0.042423 0.0
-0.000919 -0.106324 0.0
-0.010911 -0.185962 0.0
-0.023157 -0.305114 0.0
0.000000 0.000000 0.0
0.000000 0.000000 0.0
-0.014065 0.148118 0.0
-0.032414 0.187875 0.0
-0.043243 0.180755 0.0
-0.046825 0.136155 0.0
-0.047421 0.078007 0.0
-0.046232 0.018584 0.0
-0.044909 -0.043126 0.0
-0.042511 -0.108780 0.0
-0.042216 -0.190261 0.0
-0.038470 -0.292217 0.0
0.000000 0.000000 0.0
0.000000 0.000000 0.0
-0.033720 0.123395 0.0
-0.069559 0.166354 0.0
-0.093012 0.169277 0.0
-0.101963 0.132342 0.0
-0.103015 0.078017 0.0
-0.100565 0.021007 0.0
-0.095112 -0.038702 0.0
-0.087182 -0.103632 0.0
-0.077405 -0.181921 0.0
-0.056643 -0.262898 0.0
0.000000 0.000000 0.0
0.000000 0.000000 0.0
-0.043059 0.078559 0.0
-0.094127 0.128583 0.0
-0.134888 0.148350 0.0
-0.155618 0.126152 0.0
-0.161499 0.079405 0.0
-0.160274 0.026486 0.0
-0.152466 -0.029743 0.0
-0.139071 -0.091072 0.0
-0.117369 -0.159722 0.0
-0.076796 -0.214813 0.0
0.000000 0.000000 0.0
0.000000 0.000000 0.0
-0.031499 0.029268 0.0
-0.084794 0.074524 0.0
-0.141649 0.107786 0.0
-0.183081 0.105732 0.0
-0.205093 0.073361 0.0
-0.213129 0.030040 0.0
-0.207044 -0.017499 0.0
-0.186947 -0.068536 0.0
-0.149344 -0.119646 0.0
-0.087819 -0.145529 0.0
0.000000 0.000000 0.0
0.000000 0.000000 0.0
-0.003768 -0.006235 0.0
-0.029268 0.018433 0.0
-0.078293 0.050063 0.0
-0.137053 0.062708 0.0
-0.184024 0.049358 0.0
-0.210415 0.024536 0.0
-0.214064 -0.003561 0.0
-0.192916 -0.033373 0.0
-0.145529 -0.060594 0.0
-0.073269 -0.065468 0.0
0.000000 0.000000 0.0
0.000000 0.000000 0.0
-0.000000 0.000000 0.0
-0.000000 0.000000 0.0
0.000000 0.000000 0.0
0.000000 0.000000 0.0
0.000000 0.000000 0.0
0.000000 0.000000 0.0
0.000000 0.000000 0.0
0.000000 0.000000 0.0
0.000000 0.000000 0.0
0.000000 0.000000 0.0
0.014516 0.000000 0.0
