# vtk DataFile Version 3.0
Cell-Centered Data as Point Data
ASCII
DATASET STRUCTURED_GRID
DIMENSIONS 12 12 1
POINTS 144 float
0.000000 1.000000 0.0
0.090909 1.000000 0.0
0.181818 1.000000 0.0
0.272727 1.000000 0.0
0.363636 1.000000 0.0
0.454545 1.000000 0.0
0.545455 1.000000 0.0
0.636364 1.000000 0.0
0.727273 1.000000 0.0
0.818182 1.000000 0.0
0.909091 1.000000 0.0
1.000000 1.000000 0.0
0.000000 0.909091 0.0
0.090909 0.909091 0.0
0.181818 0.909091 0.0
0.272727 0.909091 0.0
0.363636 0.909091 0.0
0.454545 0.909091 0.0
0.545455 0.909091 0.0
0.636364 0.909091 0.0
0.727273 0.909091 0.0
0.818182 0.909091 0.0
0.909091 0.909091 0.0
1.000000 0.909091 0.0
0.000000 0.818182 0.0
0.090909 0.818182 0.0
0.181818 0.818182 0.0
0.272727 0.818182 0.0
0.363636 0.818182 0.0
0.454545 0.818182 0.0
0.545455 0.818182 0.0
0.636364 0.818182 0.0
0.727273 0.818182 0.0
0.818182 0.818182 0.0
0.909091 0.818182 0.0
1.000000 0.818182 0.0
0.000000 0.727273 0.0
0.090909 0.727273 0.0
0.181818 0.727273 0.0
0.272727 0.727273 0.0
0.363636 0.727273 0.0
0.454545 0.727273 0.0
0.545455 0.727273 0.0
0.636364 0.727273 0.0
0.727273 0.727273 0.0
0.818182 0.727273 0.0
0.909091 0.727273 0.0
1.000000 0.727273 0.0
0.000000 0.636364 0.0
0.090909 0.636364 0.0
0.181818 0.636364 0.0
0.272727 0.636364 0.0
0.363636 0.636364 0.0
0.454545 0.636364 0.0
0.545455 0.636364 0.0
0.636364 0.636364 0.0
0.727273 0.636364 0.0
0.818182 0.636364 0.0
0.909091 0.636364 0.0
1.000000 0.636364 0.0
0.000000 0.545455 0.0
0.090909 0.545455 0.0
0.181818 0.545455 0.0
0.272727 0.545455 0.0
0.363636 0.545455 0.0
0.454545 0.545455 0.0
0.545455 0.545455 0.0
0.636364 0.545455 0.0
0.727273 0.545455 0.0
0.818182 0.545455 0.0
0.909091 0.545455 0.0
1.000000 0.545455 0.0
0.000000 0.454545 0.0
0.090909 0.454545 0.0
0.181818 0.454545 0.0
0.272727 0.454545 0.0
0.363636 0.454545 0.0
0.454545 0.454545 0.0
0.545455 0.454545 0.0
0.636364 0.454545 0.0
0.727273 0.454545 0.0
0.818182 0.454545 0.0
0.909091 0.454545 0.0
1.000000 0.454545 0.0
0.000000 0.363636 0.0
0.090909 0.363636 0.0
0.181818 0.363636 0.0
0.272727 0.363636 0.0
0.363636 0.363636 0.0
0.454545 0.363636 0.0
0.545455 0.363636 0.0
0.636364 0.363636 0.0
0.727273 0.363636 0.0
0.818182 0.363636 0.0
0.909091 0.363636 0.0
1.000000 0.363636 0.0
0.000000 0.272727 0.0
0.090909 0.272727 0.0
0.181818 0.272727 0.0
0.272727 0.272727 0.0
0.363636 0.272727 0.0
0.454545 0.272727 0.0
0.545455 0.272727 0.0
0.636364 0.272727 0.0
0.727273 0.272727 0.0
0.818182 0.272727 0.0
0.909091 0.272727 0.0
1.000000 0.272727 0.0
0.000000 0.181818 0.0
0.090909 0.181818 0.0
0.181818 0.181818 0.0
0.272727 0.181818 0.0
0.363636 0.181818 0.0
0.454545 0.181818 0.0
0.545455 0.181818 0.0
0.636364 0.181818 0.0
0.727273 0.181818 0.0
0.818182 0.181818 0.0
0.909091 0.181818 0.0
1.000000 0.181818 0.0
0.000000 0.090909 0.0
0.090909 0.090909 0.0
0.181818 0.090909 0.0
0.272727 0.090909 0.0
0.363636 0.090909 0.0
0.454545 0.090909 0.0
0.545455 0.090909 0.0
0.636364 0.090909 0.0
0.727273 0.090909 0.0
0.818182 0.090909 0.0
0.909091 0.090909 0.0
1.000000 0.090909 0.0
0.000000 -0.000000 0.0
0.090909 -0.000000 0.0
0.181818 -0.000000 0.0
0.272727 -0.000000 0.0
0.363636 -0.000000 0.0
0.454545 -0.000000 0.0
0.545455 -0.000000 0.0
0.636364 -0.000000 0.0
0.727273 -0.000000 0.0
0.818182 -0.000000 0.0
0.909091 -0.000000 0.0
1.000000 -0.000000 0.0
POINT_DATA 144
SCALARS pressure float 1
LOOKUP_TABLE default
0.021898
0.006769
-0.015270
-0.023552
-0.024404
-0.022815
-0.020349
-0.016687
-0.009424
0.008160
0.046978
0.073209
0.013660
0.000924
-0.016844
-0.022676
-0.022870
-0.021211
-0.018815
-0.015427
-0.009303
0.004387
0.033981
0.053964
0.004372
-0.003018
-0.013424
-0.017123
-0.017465
-0.016264
-0.014106
-0.010865
-0.005720
0.003235
0.018672
0.028355
0.002287
-0.000910
-0.006423
-0.009783
-0.010918
-0.010414
-0.008618
-0.005513
-0.000778
0.005953
0.013891
0.017931
0.000796
-0.000643
-0.003443
-0.005585
-0.006506
-0.006205
-0.004783
-0.002286
0.001259
0.005598
0.009710
0.011512
0.000205
-0.000487
-0.001923
-0.003139
-0.003684
-0.003410
-0.002316
-0.000469
0.001979
0.004671
0.006888
0.007760
0.000073
-0.000282
-0.001029
-0.001672
-0.001924
-0.001645
-0.000813
0.000507
0.002151
0.003822
0.005071
0.005524
0.000123
-0.000069
-0.000462
-0.000777
-0.000844
-0.000567
0.000071
0.001013
0.002122
0.003181
0.003918
0.004169
0.000216
0.000108
-0.000100
-0.000234
-0.000197
0.000071
0.000577
0.001269
0.002042
0.002745
0.003206
0.003354
0.000286
0.000221
0.000111
0.000075
0.000170
0.000431
0.000856
0.001399
0.001978
0.002483
0.002797
0.002893
0.000299
0.000256
0.000198
0.000215
0.000346
0.000609
0.000998
0.001471
0.001957
0.002368
0.002615
0.002688
0.000289
0.000254
0.000212
0.000248
0.000393
0.000661
0.001043
0.001498
0.001959
0.002345
0.002574
0.002640
VECTORS velocity float
1.000000 -0.061272 0.0
1.000000 0.000000 0.0
1.000000 0.000000 0.0
1.000000 0.000000 0.0
1.000000 0.000000 0.0
1.000000 0.000000 0.0
1.000000 0.000000 0.0
1.000000 0.000000 0.0
1.000000 0.000000 0.0
1.000000 0.000000 0.0
1.000000 0.000000 0.0
0.438558 0.061443 0.0
0.000000 0.000000 0.0
0.070961 0.169584 0.0
0.115747 0.067664 0.0
0.141495 0.030263 0.0
0.155408 0.013604 0.0
0.161536 0.004013 0.0
0.161585 -0.003818 0.0
0.155560 -0.013403 0.0
0.141754 -0.030071 0.0
0.116109 -0.067574 0.0
0.071348 -0.169925 0.0
0.000000 0.000000 0.0
0.000000 0.000000 0.0
-0.076668 0.115754 0.0
-0.088543 0.070538 0.0
-0.085574 0.039664 0.0
-0.081102 0.020042 0.0
-0.078501 0.006177 0.0
-0.078513 -0.005977 0.0
-0.081143 -0.019835 0.0
-0.085656 -0.039457 0.0
-0.088681 -0.070412 0.0
-0.076841 -0.116115 0.0
0.000000 0.000000 0.0
0.000000 0.000000 0.0
-0.039445 0.081047 0.0
-0.057849 0.058762 0.0
-0.064248 0.037707 0.0
-0.065791 0.020678 0.0
-0.065930 0.006601 0.0
-0.065956 -0.006462 0.0
-0.065873 -0.020549 0.0
-0.064404 -0.037613 0.0
-0.058096 -0.058763 0.0
-0.039749 -0.081249 0.0
0.000000 0.000000 0.0
0.000000 0.000000 0.0
-0.023569 0.057911 0.0
-0.039241 0.045739 0.0
-0.047787 0.031725 0.0
-0.051859 0.018361 0.0
-0.053435 0.006012 0.0
-0.053455 -0.005921 0.0
-0.051922 -0.018285 0.0
-0.047892 -0.031683 0.0
-0.039379 -0.045762 0.0
-0.023693 -0.058023 0.0
0.000000 0.000000 0.0
0.000000 0.000000 0.0
-0.015598 0.041811 0.0
-0.027759 0.034547 0.0
-0.035799 0.025091 0.0
-0.040424 0.015031 0.0
-0.042494 0.005005 0.0
-0.042508 -0.004950 0.0
-0.040466 -0.014988 0.0
-0.035864 -0.025073 0.0
-0.027834 -0.034568 0.0
-0.015654 -0.041874 0.0
0.000000 0.000000 0.0
0.000000 0.000000 0.0
-0.011067 0.030158 0.0
-0.020398 0.025541 0.0
-0.027226 0.019062 0.0
-0.031543 0.011668 0.0
-0.033608 0.003927 0.0
-0.033617 -0.003895 0.0
-0.031570 -0.011644 0.0
-0.027265 -0.019054 0.0
-0.020438 -0.025555 0.0
-0.011094 -0.030194 0.0
0.000000 0.000000 0.0
0.000000 0.000000 0.0
-0.008274 0.021419 0.0
-0.015538 0.018392 0.0
-0.021163 0.013948 0.0
-0.024915 0.008651 0.0
-0.026777 0.002931 0.0
-0.026782 -0.002913 0.0
-0.024931 -0.008638 0.0
-0.021185 -0.013945 0.0
-0.015560 -0.018401 0.0
-0.008288 -0.021440 0.0
0.000000 0.000000 0.0
0.000000 0.000000 0.0
-0.006493 0.014626 0.0
-0.012316 0.012656 0.0
-0.016973 0.009688 0.0
-0.020176 0.006056 0.0
-0.021801 0.002060 0.0
-0.021804 -0.002050 0.0
-0.020186 -0.006049 0.0
-0.016986 -0.009686 0.0
-0.012329 -0.012661 0.0
-0.006500 -0.014637 0.0
0.000000 0.000000 0.0
0.000000 0.000000 0.0
-0.005380 0.009109 0.0
-0.010262 0.007915 0.0
-0.014235 0.006091 0.0
-0.017017 0.003825 0.0
-0.018444 0.001304 0.0
-0.018447 -0.001299 0.0
-0.017022 -0.003821 0.0
-0.014242 -0.006090 0.0
-0.010269 -0.007919 0.0
-0.005384 -0.009115 0.0
0.000000 0.000000 0.0
0.000000 0.000000 0.0
-0.004766 0.004370 0.0
-0.009115 0.003805 0.0
-0.012685 0.002936 0.0
-0.015208 0.001848 0.0
-0.016512 0.000631 0.0
-0.016513 -0.000629 0.0
-0.015212 -0.001846 0.0
-0.012690 -0.002936 0.0
-0.009119 -0.003807 0.0
-0.004768 -0.004372 0.0
0.000000 0.000000 0.0
0.000000 0.000000 0.0
0.000000 0.000000 0.0
0.000000 0.000000 0.0
0.000000 0.000000 0.0
0.000000 0.000000 0.0
0.000000 0.000000 0.0
0.000000 0.000000 0.0
0.000000 0.000000 0.0
0.000000 0.000000 0.0
0.000000 0.000000 0.0
0.000000 0.000000 0.0
0.001143 0.000000 0.0
