# vtk DataFile Version 2.0
Lid Driven Cavity Flow
ASCII
DATASET STRUCTURED_GRID
DIMENSIONS 181 181 1
POINTS 32761 float
0.0000000 0.0000000 0.0
0.0055556 0.0000000 0.0
0.0111111 0.0000000 0.0
0.0166667 0.0000000 0.0
0.0222222 0.0000000 0.0
0.0277778 0.0000000 0.0
0.0333333 0.0000000 0.0
0.0388889 0.0000000 0.0
0.0444444 0.0000000 0.0
0.0500000 0.0000000 0.0
0.0555556 0.0000000 0.0
0.0611111 0.0000000 0.0
0.0666667 0.0000000 0.0
0.0722222 0.0000000 0.0
0.0777778 0.0000000 0.0
0.0833333 0.0000000 0.0
0.0888889 0.0000000 0.0
0.0944444 0.0000000 0.0
0.1000000 0.0000000 0.0
0.1055556 0.0000000 0.0
0.1111111 0.0000000 0.0
0.1166667 0.0000000 0.0
0.1222222 0.0000000 0.0
0.1277778 0.0000000 0.0
0.1333333 0.0000000 0.0
0.1388889 0.0000000 0.0
0.1444444 0.0000000 0.0
0.1500000 0.0000000 0.0
0.1555556 0.0000000 0.0
0.1611111 0.0000000 0.0
0.1666667 0.0000000 0.0
0.1722222 0.0000000 0.0
0.1777778 0.0000000 0.0
0.1833333 0.0000000 0.0
0.1888889 0.0000000 0.0
0.1944444 0.0000000 0.0
0.2000000 0.0000000 0.0
0.2055556 0.0000000 0.0
0.2111111 0.0000000 0.0
0.2166667 0.0000000 0.0
0.2222222 0.0000000 0.0
0.2277778 0.0000000 0.0
0.2333333 0.0000000 0.0
0.2388889 0.0000000 0.0
0.2444444 0.0000000 0.0
0.2500000 0.0000000 0.0
0.2555556 0.0000000 0.0
0.2611111 0.0000000 0.0
0.2666667 0.0000000 0.0
0.2722222 0.0000000 0.0
0.2777778 0.0000000 0.0
0.2833333 0.0000000 0.0
0.2888889 0.0000000 0.0
0.2944444 0.0000000 0.0
0.3000000 0.0000000 0.0
0.3055556 0.0000000 0.0
0.3111111 0.0000000 0.0
0.3166667 0.0000000 0.0
0.3222222 0.0000000 0.0
0.3277778 0.0000000 0.0
0.3333333 0.0000000 0.0
0.3388889 0.0000000 0.0
0.3444444 0.0000000 0.0
0.3500000 0.0000000 0.0
0.3555556 0.0000000 0.0
0.3611111 0.0000000 0.0
0.3666667 0.0000000 0.0
0.3722222 0.0000000 0.0
0.3777778 0.0000000 0.0
0.3833333 0.0000000 0.0
0.3888889 0.0000000 0.0
0.3944444 0.0000000 0.0
0.4000000 0.0000000 0.0
0.4055556 0.0000000 0.0
0.4111111 0.0000000 0.0
0.4166667 0.0000000 0.0
0.4222222 0.0000000 0.0
0.4277778 0.0000000 0.0
0.4333333 0.0000000 0.0
0.4388889 0.0000000 0.0
0.4444444 0.0000000 0.0
0.4500000 0.0000000 0.0
0.4555556 0.0000000 0.0
0.4611111 0.0000000 0.0
0.4666667 0.0000000 0.0
0.4722222 0.0000000 0.0
0.4777778 0.0000000 0.0
0.4833333 0.0000000 0.0
0.4888889 0.0000000 0.0
0.4944444 0.0000000 0.0
0.5000000 0.0000000 0.0
0.5055556 0.0000000 0.0
0.5111111 0.0000000 0.0
0.5166667 0.0000000 0.0
0.5222222 0.0000000 0.0
0.5277778 0.0000000 0.0
0.5333333 0.0000000 0.0
0.5388889 0.0000000 0.0
0.5444444 0.0000000 0.0
0.5500000 0.0000000 0.0
0.5555556 0.0000000 0.0
0.5611111 0.0000000 0.0
0.5666667 0.0000000 0.0
0.5722222 0.0000000 0.0
0.5777778 0.0000000 0.0
0.5833333 0.0000000 0.0
0.5888889 0.0000000 0.0
0.5944444 0.0000000 0.0
0.6000000 0.0000000 0.0
0.6055556 0.0000000 0.0
0.6111111 0.0000000 0.0
0.6166667 0.0000000 0.0
0.6222222 0.0000000 0.0
0.6277778 0.0000000 0.0
0.6333333 0.0000000 0.0
0.6388889 0.0000000 0.0
0.6444444 0.0000000 0.0
0.6500000 0.0000000 0.0
0.6555556 0.0000000 0.0
0.6611111 0.0000000 0.0
0.6666667 0.0000000 0.0
0.6722222 0.0000000 0.0
0.6777778 0.0000000 0.0
0.6833333 0.0000000 0.0
0.6888889 0.0000000 0.0
0.6944444 0.0000000 0.0
0.7000000 0.0000000 0.0
0.7055556 0.0000000 0.0
0.7111111 0.0000000 0.0
0.7166667 0.0000000 0.0
0.7222222 0.0000000 0.0
0.7277778 0.0000000 0.0
0.7333333 0.0000000 0.0
0.7388889 0.0000000 0.0
0.7444444 0.0000000 0.0
0.7500000 0.0000000 0.0
0.7555556 0.0000000 0.0
0.7611111 0.0000000 0.0
0.7666667 0.0000000 0.0
0.7722222 0.0000000 0.0
0.7777778 0.0000000 0.0
0.7833333 0.0000000 0.0
0.7888889 0.0000000 0.0
0.7944444 0.0000000 0.0
0.8000000 0.0000000 0.0
0.8055556 0.0000000 0.0
0.8111111 0.0000000 0.0
0.8166667 0.0000000 0.0
0.8222222 0.0000000 0.0
0.8277778 0.0000000 0.0
0.8333333 0.0000000 0.0
0.8388889 0.0000000 0.0
0.8444444 0.0000000 0.0
0.8500000 0.0000000 0.0
0.8555556 0.0000000 0.0
0.8611111 0.0000000 0.0
0.8666667 0.0000000 0.0
0.8722222 0.0000000 0.0
0.8777778 0.0000000 0.0
0.8833333 0.0000000 0.0
0.8888889 0.0000000 0.0
0.8944444 0.0000000 0.0
0.9000000 0.0000000 0.0
0.9055556 0.0000000 0.0
0.9111111 0.0000000 0.0
0.9166667 0.0000000 0.0
0.9222222 0.0000000 0.0
0.9277778 0.0000000 0.0
0.9333333 0.0000000 0.0
0.9388889 0.0000000 0.0
0.9444444 0.0000000 0.0
0.9500000 0.0000000 0.0
0.9555556 0.0000000 0.0
0.9611111 0.0000000 0.0
0.9666667 0.0000000 0.0
0.9722222 0.0000000 0.0
0.9777778 0.0000000 0.0
0.9833333 0.0000000 0.0
0.9888889 0.0000000 0.0
0.9944444 0.0000000 0.0
1.0000000 0.0000000 0.0
0.0000000 0.0055556 0.0
0.0055556 0.0055556 0.0
0.0111111 0.0055556 0.0
0.0166667 0.0055556 0.0
0.0222222 0.0055556 0.0
0.0277778 0.0055556 0.0
0.0333333 0.0055556 0.0
0.0388889 0.0055556 0.0
0.0444444 0.0055556 0.0
0.0500000 0.0055556 0.0
0.0555556 0.0055556 0.0
0.0611111 0.0055556 0.0
0.0666667 0.0055556 0.0
0.0722222 0.0055556 0.0
0.0777778 0.0055556 0.0
0.0833333 0.0055556 0.0
0.0888889 0.0055556 0.0
0.0944444 0.0055556 0.0
0.1000000 0.0055556 0.0
0.1055556 0.0055556 0.0
0.1111111 0.0055556 0.0
0.1166667 0.0055556 0.0
0.1222222 0.0055556 0.0
0.1277778 0.0055556 0.0
0.1333333 0.0055556 0.0
0.1388889 0.0055556 0.0
0.1444444 0.0055556 0.0
0.1500000 0.0055556 0.0
0.1555556 0.0055556 0.0
0.1611111 0.0055556 0.0
0.1666667 0.0055556 0.0
0.1722222 0.0055556 0.0
0.1777778 0.0055556 0.0
0.1833333 0.0055556 0.0
0.1888889 0.0055556 0.0
0.1944444 0.0055556 0.0
0.2000000 0.0055556 0.0
0.2055556 0.0055556 0.0
0.2111111 0.0055556 0.0
0.2166667 0.0055556 0.0
0.2222222 0.0055556 0.0
0.2277778 0.0055556 0.0
0.2333333 0.0055556 0.0
0.2388889 0.0055556 0.0
0.2444444 0.0055556 0.0
0.2500000 0.0055556 0.0
0.2555556 0.0055556 0.0
0.2611111 0.0055556 0.0
0.2666667 0.0055556 0.0
0.2722222 0.0055556 0.0
0.2777778 0.0055556 0.0
0.2833333 0.0055556 0.0
0.2888889 0.0055556 0.0
0.2944444 0.0055556 0.0
0.3000000 0.0055556 0.0
0.3055556 0.0055556 0.0
0.3111111 0.0055556 0.0
0.3166667 0.0055556 0.0
0.3222222 0.0055556 0.0
0.3277778 0.0055556 0.0
0.3333333 0.0055556 0.0
0.3388889 0.0055556 0.0
0.3444444 0.0055556 0.0
0.3500000 0.0055556 0.0
0.3555556 0.0055556 0.0
0.3611111 0.0055556 0.0
0.3666667 0.0055556 0.0
0.3722222 0.0055556 0.0
0.3777778 0.0055556 0.0
0.3833333 0.0055556 0.0
0.3888889 0.0055556 0.0
0.3944444 0.0055556 0.0
0.4000000 0.0055556 0.0
0.4055556 0.0055556 0.0
0.4111111 0.0055556 0.0
0.4166667 0.0055556 0.0
0.4222222 0.0055556 0.0
0.4277778 0.0055556 0.0
0.4333333 0.0055556 0.0
0.4388889 0.0055556 0.0
0.4444444 0.0055556 0.0
0.4500000 0.0055556 0.0
0.4555556 0.0055556 0.0
0.4611111 0.0055556 0.0
0.4666667 0.0055556 0.0
0.4722222 0.0055556 0.0
0.4777778 0.0055556 0.0
0.4833333 0.0055556 0.0
0.4888889 0.0055556 0.0
0.4944444 0.0055556 0.0
0.5000000 0.0055556 0.0
0.5055556 0.0055556 0.0
0.5111111 0.0055556 0.0
0.5166667 0.0055556 0.0
0.5222222 0.0055556 0.0
0.5277778 0.0055556 0.0
0.5333333 0.0055556 0.0
0.5388889 0.0055556 0.0
0.5444444 0.0055556 0.0
0.5500000 0.0055556 0.0
0.5555556 0.0055556 0.0
0.5611111 0.0055556 0.0
0.5666667 0.0055556 0.0
0.5722222 0.0055556 0.0
0.5777778 0.0055556 0.0
0.5833333 0.0055556 0.0
0.5888889 0.0055556 0.0
0.5944444 0.0055556 0.0
0.6000000 0.0055556 0.0
0.6055556 0.0055556 0.0
0.6111111 0.0055556 0.0
0.6166667 0.0055556 0.0
0.6222222 0.0055556 0.0
0.6277778 0.0055556 0.0
0.6333333 0.0055556 0.0
0.6388889 0.0055556 0.0
0.6444444 0.0055556 0.0
0.6500000 0.0055556 0.0
0.6555556 0.0055556 0.0
0.6611111 0.0055556 0.0
0.6666667 0.0055556 0.0
0.6722222 0.0055556 0.0
0.6777778 0.0055556 0.0
0.6833333 0.0055556 0.0
0.6888889 0.0055556 0.0
0.6944444 0.0055556 0.0
0.7000000 0.0055556 0.0
0.7055556 0.0055556 0.0
0.7111111 0.0055556 0.0
0.7166667 0.0055556 0.0
0.7222222 0.0055556 0.0
0.7277778 0.0055556 0.0
0.7333333 0.0055556 0.0
0.7388889 0.0055556 0.0
0.7444444 0.0055556 0.0
0.7500000 0.0055556 0.0
0.7555556 0.0055556 0.0
0.7611111 0.0055556 0.0
0.7666667 0.0055556 0.0
0.7722222 0.0055556 0.0
0.7777778 0.0055556 0.0
0.7833333 0.0055556 0.0
0.7888889 0.0055556 0.0
0.7944444 0.0055556 0.0
0.8000000 0.0055556 0.0
0.8055556 0.0055556 0.0
0.8111111 0.0055556 0.0
0.8166667 0.0055556 0.0
0.8222222 0.0055556 0.0
0.8277778 0.0055556 0.0
0.8333333 0.0055556 0.0
0.8388889 0.0055556 0.0
0.8444444 0.0055556 0.0
0.8500000 0.0055556 0.0
0.8555556 0.0055556 0.0
0.8611111 0.0055556 0.0
0.8666667 0.0055556 0.0
0.8722222 0.0055556 0.0
0.8777778 0.0055556 0.0
0.8833333 0.0055556 0.0
0.8888889 0.0055556 0.0
0.8944444 0.0055556 0.0
0.9000000 0.0055556 0.0
0.9055556 0.0055556 0.0
0.9111111 0.0055556 0.0
0.9166667 0.0055556 0.0
0.9222222 0.0055556 0.0
0.9277778 0.0055556 0.0
0.9333333 0.0055556 0.0
0.9388889 0.0055556 0.0
0.9444444 0.0055556 0.0
0.9500000 0.0055556 0.0
0.9555556 0.0055556 0.0
0.9611111 0.0055556 0.0
0.9666667 0.0055556 0.0
0.9722222 0.0055556 0.0
0.9777778 0.0055556 0.0
0.9833333 0.0055556 0.0
0.9888889 0.0055556 0.0
0.9944444 0.0055556 0.0
1.0000000 0.0055556 0.0
0.0000000 0.0111111 0.0
0.0055556 0.0111111 0.0
0.0111111 0.0111111 0.0
0.0166667 0.0111111 0.0
0.0222222 0.0111111 0.0
0.0277778 0.0111111 0.0
0.0333333 0.0111111 0.0
0.0388889 0.0111111 0.0
0.0444444 0.0111111 0.0
0.0500000 0.0111111 0.0
0.0555556 0.0111111 0.0
0.0611111 0.0111111 0.0
0.0666667 0.0111111 0.0
0.0722222 0.0111111 0.0
0.0777778 0.0111111 0.0
0.0833333 0.0111111 0.0
0.0888889 0.0111111 0.0
0.0944444 0.0111111 0.0
0.1000000 0.0111111 0.0
0.1055556 0.0111111 0.0
0.1111111 0.0111111 0.0
0.1166667 0.0111111 0.0
0.1222222 0.0111111 0.0
0.1277778 0.0111111 0.0
0.1333333 0.0111111 0.0
0.1388889 0.0111111 0.0
0.1444444 0.0111111 0.0
0.1500000 0.0111111 0.0
0.1555556 0.0111111 0.0
0.1611111 0.0111111 0.0
0.1666667 0.0111111 0.0
0.1722222 0.0111111 0.0
0.1777778 0.0111111 0.0
0.1833333 0.0111111 0.0
0.1888889 0.0111111 0.0
0.1944444 0.0111111 0.0
0.2000000 0.0111111 0.0
0.2055556 0.0111111 0.0
0.2111111 0.0111111 0.0
0.2166667 0.0111111 0.0
0.2222222 0.0111111 0.0
0.2277778 0.0111111 0.0
0.2333333 0.0111111 0.0
0.2388889 0.0111111 0.0
0.2444444 0.0111111 0.0
0.2500000 0.0111111 0.0
0.2555556 0.0111111 0.0
0.2611111 0.0111111 0.0
0.2666667 0.0111111 0.0
[...]
POINT_DATA 32761
VECTORS velocity float
0.0000000 0.0000000 0.0
0.0000000 0.0000000 0.0
0.0000000 0.0000000 0.0
0.0000000 0.0000000 0.0
0.0000000 0.0000000 0.0
0.0000000 0.0000000 0.0
0.0000000 0.0000000 0.0
0.0000000 0.0000000 0.0
0.0000000 0.0000000 0.0
0.0000000 0.0000000 0.0
0.0000000 0.0000000 0.0
0.0000000 0.0000000 0.0
0.0000000 0.0000000 0.0
0.0000000 0.0000000 0.0
0.0000000 0.0000000 0.0
0.0000000 0.0000000 0.0
0.0000000 0.0000000 0.0
0.0000000 0.0000000 0.0
0.0000000 0.0000000 0.0
0.0000000 0.0000000 0.0
0.0000000 0.0000000 0.0
0.0000000 0.0000000 0.0
0.0000000 0.0000000 0.0
0.0000000 0.0000000 0.0
0.0000000 0.0000000 0.0
0.0000000 0.0000000 0.0
0.0000000 0.0000000 0.0
0.0000000 0.0000000 0.0
0.0000000 0.0000000 0.0
0.0000000 0.0000000 0.0
0.0000000 0.0000000 0.0
0.0000000 0.0000000 0.0
0.0000000 0.0000000 0.0
0.0000000 0.0000000 0.0
0.0000000 0.0000000 0.0
0.0000000 0.0000000 0.0
0.0000000 0.0000000 0.0
0.0000000 0.0000000 0.0
0.0000000 0.0000000 0.0
0.0000000 0.0000000 0.0
0.0000000 0.0000000 0.0
0.0000000 0.0000000 0.0
0.0000000 0.0000000 0.0
0.0000000 0.0000000 0.0
0.0000000 0.0000000 0.0
0.0000000 0.0000000 0.0
0.0000000 0.0000000 0.0
0.0000000 0.0000000 0.0
0.0000000 0.0000000 0.0
0.0000000 0.0000000 0.0
0.0000000 0.0000000 0.0
0.0000000 0.0000000 0.0
0.0000000 0.0000000 0.0
0.0000000 0.0000000 0.0
0.0000000 0.0000000 0.0
0.0000000 0.0000000 0.0
0.0000000 0.0000000 0.0
0.0000000 0.0000000 0.0
0.0000000 0.0000000 0.0
0.0000000 0.0000000 0.0
0.0000000 0.0000000 0.0
0.0000000 0.0000000 0.0
0.0000000 0.0000000 0.0
0.0000000 0.0000000 0.0
0.0000000 0.0000000 0.0
0.0000000 0.0000000 0.0
0.0000000 0.0000000 0.0
0.0000000 0.0000000 0.0
0.0000000 0.0000000 0.0
0.0000000 0.0000000 0.0
0.0000000 0.0000000 0.0
0.0000000 0.0000000 0.0
0.0000000 0.0000000 0.0
0.0000000 0.0000000 0.0
0.0000000 0.0000000 0.0
0.0000000 0.0000000 0.0
0.0000000 0.0000000 0.0
0.0000000 0.0000000 0.0
0.0000000 0.0000000 0.0
0.0000000 0.0000000 0.0
0.0000000 0.0000000 0.0
0.0000000 0.0000000 0.0
0.0000000 0.0000000 0.0
0.0000000 0.0000000 0.0
0.0000000 0.0000000 0.0
0.0000000 0.0000000 0.0
0.0000000 0.0000000 0.0
0.0000000 0.0000000 0.0
0.0000000 0.0000000 0.0
0.0000000 0.0000000 0.0
0.0000000 0.0000000 0.0
0.0000000 0.0000000 0.0
0.0000000 0.0000000 0.0
0.0000000 0.0000000 0.0
0.0000000 0.0000000 0.0
0.0000000 0.0000000 0.0
0.0000000 0.0000000 0.0
0.0000000 0.0000000 0.0
0.0000000 0.0000000 0.0
0.0000000 0.0000000 0.0
0.0000000 0.0000000 0.0
0.0000000 0.0000000 0.0
0.0000000 0.0000000 0.0
0.0000000 0.0000000 0.0
0.0000000 0.0000000 0.0
0.0000000 0.0000000 0.0
0.0000000 0.0000000 0.0
0.0000000 0.0000000 0.0
0.0000000 0.0000000 0.0
0.0000000 0.0000000 0.0
0.0000000 0.0000000 0.0
0.0000000 0.0000000 0.0
0.0000000 0.0000000 0.0
0.0000000 0.0000000 0.0
0.0000000 0.0000000 0.0
0.0000000 0.0000000 0.0
0.0000000 0.0000000 0.0
0.0000000 0.0000000 0.0
0.0000000 0.0000000 0.0
0.0000000 0.0000000 0.0
0.0000000 0.0000000 0.0
0.0000000 0.0000000 0.0
0.0000000 0.0000000 0.0
0.0000000 0.0000000 0.0
0.0000000 0.0000000 0.0
0.0000000 0.0000000 0.0
0.0000000 0.0000000 0.0
0.0000000 0.0000000 0.0
0.0000000 0.0000000 0.0
0.0000000 0.0000000 0.0
0.0000000 0.0000000 0.0
0.0000000 0.0000000 0.0
0.0000000 0.0000000 0.0
0.0000000 0.0000000 0.0
0.0000000 0.0000000 0.0
0.0000000 0.0000000 0.0
0.0000000 0.0000000 0.0
0.0000000 0.0000000 0.0
0.0000000 0.0000000 0.0
0.0000000 0.0000000 0.0
0.0000000 0.0000000 0.0
0.0000000 0.0000000 0.0
0.0000000 0.0000000 0.0
0.0000000 0.0000000 0.0
0.0000000 0.0000000 0.0
0.0000000 0.0000000 0.0
0.0000000 0.0000000 0.0
0.0000000 0.0000000 0.0
0.0000000 0.0000000 0.0
0.0000000 0.0000000 0.0
0.0000000 0.0000000 0.0
0.0000000 0.0000000 0.0
0.0000000 0.0000000 0.0
0.0000000 0.0000000 0.0
0.0000000 0.0000000 0.0
0.0000000 0.0000000 0.0
0.0000000 0.0000000 0.0
0.0000000 0.0000000 0.0
0.0000000 0.0000000 0.0
0.0000000 0.0000000 0.0
0.0000000 0.0000000 0.0
0.0000000 0.0000000 0.0
0.0000000 0.0000000 0.0
0.0000000 0.0000000 0.0
0.0000000 0.0000000 0.0
0.0000000 0.0000000 0.0
0.0000000 0.0000000 0.0
0.0000000 0.0000000 0.0
0.0000000 0.0000000 0.0
0.0000000 0.0000000 0.0
0.0000000 0.0000000 0.0
0.0000000 0.0000000 0.0
0.0000000 0.0000000 0.0
0.0000000 0.0000000 0.0
0.0000000 0.0000000 0.0
0.0000000 0.0000000 0.0
0.0000000 0.0000000 0.0
0.0000000 0.0000000 0.0
0.0000000 0.0000000 0.0
0.0000000 0.0000000 0.0
0.0000014 0.0000000 0.0
0.0000000 0.0000000 0.0
-0.0011683 -0.0011750 0.0
-0.0004491 -0.0003597 0.0
-0.0002616 -0.0001749 0.0
-0.0001319 -0.0000924 0.0
-0.0000395 -0.0000561 0.0
0.0000298 -0.0000390 0.0
0.0000843 -0.0000296 0.0
0.0001280 -0.0000235 0.0
0.0001630 -0.0000187 0.0
0.0001901 -0.0000144 0.0
0.0002100 -0.0000105 0.0
0.0002228 -0.0000068 0.0
0.0002288 -0.0000032 0.0
0.0002281 0.0000004 0.0
0.0002209 0.0000038 0.0
0.0002072 0.0000071 0.0
0.0001873 0.0000103 0.0
0.0001614 0.0000134 0.0
0.0001295 0.0000164 0.0
0.0000920 0.0000193 0.0
0.0000489 0.0000221 0.0
0.0000005 0.0000249 0.0
-0.0000532 0.0000275 0.0
-0.0001119 0.0000300 0.0
-0.0001755 0.0000325 0.0
-0.0002439 0.0000349 0.0
-0.0003170 0.0000373 0.0
-0.0003948 0.0000396 0.0
-0.0004770 0.0000419 0.0
-0.0005637 0.0000441 0.0
-0.0006548 0.0000463 0.0
-0.0007502 0.0000485 0.0
-0.0008499 0.0000507 0.0
-0.0009540 0.0000529 0.0
-0.0010623 0.0000550 0.0
-0.0011748 0.0000572 0.0
-0.0012915 0.0000594 0.0
-0.0014125 0.0000615 0.0
-0.0015376 0.0000636 0.0
-0.0016669 0.0000658 0.0
-0.0018003 0.0000679 0.0
-0.0019378 0.0000700 0.0
-0.0020794 0.0000721 0.0
-0.0022249 0.0000742 0.0
-0.0023744 0.0000762 0.0
-0.0025278 0.0000782 0.0
-0.0026849 0.0000802 0.0
-0.0028457 0.0000821 0.0
-0.0030101 0.0000839 0.0
-0.0031778 0.0000857 0.0
-0.0033489 0.0000874 0.0
-0.0035230 0.0000891 0.0
-0.0037001 0.0000906 0.0
-0.0038799 0.0000920 0.0
-0.0040622 0.0000933 0.0
-0.0042468 0.0000945 0.0
-0.0044333 0.0000956 0.0
-0.0046216 0.0000965 0.0
-0.0048112 0.0000973 0.0
-0.0050020 0.0000978 0.0
-0.0051935 0.0000983 0.0
-0.0053854 0.0000985 0.0
-0.0055774 0.0000985 0.0
-0.0057689 0.0000983 0.0
-0.0059597 0.0000979 0.0
-0.0061492 0.0000973 0.0
-0.0063370 0.0000965 0.0
-0.0065227 0.0000954 0.0
-0.0067058 0.0000940 0.0
-0.0068858 0.0000924 0.0
-0.0070621 0.0000906 0.0
-0.0072343 0.0000884 0.0
-0.0074018 0.0000860 0.0
-0.0075642 0.0000833 0.0
-0.0077208 0.0000803 0.0
-0.0078712 0.0000771 0.0
-0.0080147 0.0000735 0.0
-0.0081509 0.0000697 0.0
-0.0082793 0.0000656 0.0
-0.0083992 0.0000612 0.0
-0.0085101 0.0000565 0.0
-0.0086117 0.0000515 0.0
-0.0087033 0.0000463 0.0
-0.0087844 0.0000409 0.0
-0.0088547 0.0000352 0.0
-0.0089136 0.0000292 0.0
-0.0089608 0.0000231 0.0
-0.0089959 0.0000167 0.0
-0.0090184 0.0000102 0.0
-0.0090282 0.0000034 0.0
-0.0090248 -0.0000034 0.0
-0.0090081 -0.0000105 0.0
-0.0089777 -0.0000176 0.0
-0.0089337 -0.0000248 0.0
-0.0088757 -0.0000321 0.0
-0.0088038 -0.0000394 0.0
-0.0087179 -0.0000467 0.0
-0.0086181 -0.0000540 0.0
-0.0085043 -0.0000613 0.0
-0.0083768 -0.0000685 0.0
-0.0082356 -0.0000755 0.0
-0.0080812 -0.0000825 0.0
-0.0079136 -0.0000893 0.0
-0.0077333 -0.0000959 0.0
-0.0075407 -0.0001023 0.0
-0.0073361 -0.0001085 0.0
-0.0071202 -0.0001143 0.0
-0.0068934 -0.0001199 0.0
-0.0066565 -0.0001251 0.0
-0.0064099 -0.0001300 0.0
-0.0061544 -0.0001345 0.0
-0.0058908 -0.0001386 0.0
-0.0056198 -0.0001423 0.0
-0.0053423 -0.0001456 0.0
-0.0050590 -0.0001484 0.0
-0.0047709 -0.0001507 0.0
-0.0044789 -0.0001525 0.0
-0.0041838 -0.0001538 0.0
-0.0038867 -0.0001547 0.0
-0.0035884 -0.0001550 0.0
-0.0032899 -0.0001548 0.0
-0.0029921 -0.0001542 0.0
-0.0026961 -0.0001530 0.0
-0.0024027 -0.0001513 0.0
-0.0021129 -0.0001491 0.0
-0.0018275 -0.0001465 0.0
-0.0015475 -0.0001434 0.0
-0.0012737 -0.0001399 0.0
-0.0010069 -0.0001359 0.0
-0.0007479 -0.0001315 0.0
-0.0004974 -0.0001268 0.0
-0.0002562 -0.0001217 0.0
-0.0000249 -0.0001163 0.0
0.0001959 -0.0001105 0.0
0.0004057 -0.0001045 0.0
0.0006039 -0.0000983 0.0
0.0007902 -0.0000919 0.0
0.0009642 -0.0000852 0.0
0.0011255 -0.0000785 0.0
0.0012739 -0.0000716 0.0
0.0014092 -0.0000646 0.0
0.0015312 -0.0000576 0.0
0.0016399 -0.0000506 0.0
0.0017352 -0.0000436 0.0
0.0018173 -0.0000366 0.0
0.0018860 -0.0000297 0.0
0.0019417 -0.0000229 0.0
0.0019845 -0.0000162 0.0
0.0020145 -0.0000096 0.0
0.0020322 -0.0000032 0.0
0.0020377 0.0000030 0.0
0.0020316 0.0000090 0.0
0.0020141 0.0000148 0.0
0.0019857 0.0000203 0.0
0.0019469 0.0000256 0.0
0.0018982 0.0000306 0.0
0.0018401 0.0000353 0.0
0.0017732 0.0000397 0.0
0.0016982 0.0000438 0.0
0.0016156 0.0000475 0.0
0.0015262 0.0000509 0.0
0.0014307 0.0000538 0.0
0.0013299 0.0000563 0.0
0.0012247 0.0000584 0.0
0.0011160 0.0000599 0.0
0.0010048 0.0000610 0.0
0.0008922 0.0000614 0.0
0.0007794 0.0000611 0.0
0.0006677 0.0000601 0.0
0.0005586 0.0000582 0.0
0.0004537 0.0000554 0.0
0.0003549 0.0000516 0.0
0.0002640 0.0000465 0.0
0.0001831 0.0000402 0.0
0.0001145 0.0000324 0.0
0.0000604 0.0000233 0.0
0.0000225 0.0000132 0.0
0.0000016 0.0000032 0.0
-0.0000037 -0.0000036 0.0
0.0000000 0.0000000 0.0
0.0000000 0.0000000 0.0
-0.0003407 -0.0004823 0.0
-0.0003708 -0.0004408 0.0
-0.0002773 -0.0003170 0.0
-0.0001568 -0.0002219 0.0
-0.0000428 -0.0001616 0.0
0.0000563 -0.0001237 0.0
0.0001399 -0.0000980 0.0
0.0002089 -0.0000785 0.0
0.0002642 -0.0000619 0.0
0.0003063 -0.0000469 0.0
0.0003354 -0.0000325 0.0
0.0003517 -0.0000187 0.0
0.0003554 -0.0000051 0.0
0.0003465 0.0000081 0.0
0.0003254 0.0000211 0.0
0.0002921 0.0000337 0.0
0.0002469 0.0000460 0.0
0.0001901 0.0000580 0.0
0.0001221 0.0000695 0.0
0.0000430 0.0000808 0.0
-0.0000468 0.0000917 0.0
-0.0001470 0.0001022 0.0
-0.0002574 0.0001125 0.0
-0.0003776 0.0001225 0.0
-0.0005075 0.0001322 0.0
-0.0006469 0.0001417 0.0
-0.0007954 0.0001510 0.0
-0.0009530 0.0001601 0.0
-0.0011195 0.0001691 0.0
-0.0012948 0.0001779 0.0
-0.0014787 0.0001867 0.0
-0.0016712 0.0001953 0.0
-0.0018722 0.0002039 0.0
-0.0020815 0.0002125 0.0
-0.0022993 0.0002210 0.0
-0.0025254 0.0002294 0.0
-0.0027597 0.0002379 0.0
-0.0030022 0.0002462 0.0
-0.0032528 0.0002546 0.0
-0.0035115 0.0002629 0.0
-0.0037782 0.0002711 0.0
-0.0040528 0.0002792 0.0
-0.0043352 0.0002873 0.0
-0.0046253 0.0002952 0.0
-0.0049229 0.0003030 0.0
-0.0052279 0.0003106 0.0
-0.0055401 0.0003181 0.0
-0.0058592 0.0003253 0.0
-0.0061850 0.0003323 0.0
-0.0065172 0.0003390 0.0
-0.0068556 0.0003454 0.0
-0.0071997 0.0003514 0.0
-0.0075492 0.0003570 0.0
-0.0079036 0.0003623 0.0
-0.0082626 0.0003670 0.0
-0.0086255 0.0003713 0.0
-0.0089920 0.0003750 0.0
-0.0093614 0.0003781 0.0
-0.0097331 0.0003806 0.0
-0.0101066 0.0003824 0.0
-0.0104810 0.0003836 0.0
-0.0108557 0.0003840 0.0
-0.0112300 0.0003836 0.0
-0.0116030 0.0003825 0.0
-0.0119741 0.0003804 0.0
-0.0123422 0.0003775 0.0
-0.0127065 0.0003737 0.0
-0.0130662 0.0003689 0.0
-0.0134203 0.0003632 0.0
-0.0137679 0.0003565 0.0
-0.0141079 0.0003487 0.0
-0.0144394 0.0003399 0.0
-0.0147615 0.0003301 0.0
-0.0150729 0.0003191 0.0
-0.0153729 0.0003071 0.0
-0.0156602 0.0002941 0.0
-0.0159340 0.0002799 0.0
-0.0161932 0.0002647 0.0
-0.0164367 0.0002484 0.0
-0.0166636 0.0002310 0.0
-0.0168729 0.0002127 0.0
-0.0170637 0.0001933 0.0
-0.0172349 0.0001729 0.0
-0.0173858 0.0001516 0.0
-0.0175155 0.0001294 0.0
-0.0176232 0.0001063 0.0
-0.0177080 0.0000824 0.0
-0.0177693 0.0000578 0.0
-0.0178065 0.0000325 0.0
-0.0178190 0.0000065 0.0
-0.0178061 -0.0000200 0.0
-0.0177676 -0.0000469 0.0
-0.0177030 -0.0000742 0.0
-0.0176120 -0.0001019 0.0
-0.0174945 -0.0001297 0.0
-0.0173503 -0.0001576 0.0
-0.0171793 -0.0001856 0.0
-0.0169818 -0.0002135 0.0
-0.0167577 -0.0002411 0.0
-0.0165075 -0.0002685 0.0
-0.0162314 -0.0002955 0.0
-0.0159299 -0.0003219 0.0
-0.0156036 -0.0003477 0.0
-0.0152532 -0.0003728 0.0
-0.0148794 -0.0003970 0.0
-0.0144831 -0.0004203 0.0
-0.0140653 -0.0004425 0.0
-0.0136269 -0.0004636 0.0
-0.0131692 -0.0004834 0.0
-0.0126934 -0.0005019 0.0
-0.0122008 -0.0005189 0.0
-0.0116928 -0.0005344 0.0
-0.0111708 -0.0005484 0.0
-0.0106364 -0.0005606 0.0
-0.0100912 -0.0005712 0.0
-0.0095369 -0.0005800 0.0
-0.0089750 -0.0005869 0.0
-0.0084074 -0.0005921 0.0
-0.0078358 -0.0005953 0.0
-0.0072619 -0.0005966 0.0
-0.0066876 -0.0005961 0.0
-0.0061145 -0.0005936 0.0
-0.0055446 -0.0005893 0.0
-0.0049795 -0.0005831 0.0
-0.0044211 -0.0005750 0.0
-0.0038709 -0.0005652 0.0
-0.0033306 -0.0005537 0.0
-0.0028019 -0.0005404 0.0
-0.0022863 -0.0005256 0.0
-0.0017853 -0.0005093 0.0
-0.0013002 -0.0004915 0.0
-0.0008324 -0.0004724 0.0
-0.0003832 -0.0004520 0.0
0.0000463 -0.0004304 0.0
0.0004551 -0.0004079 0.0
0.0008423 -0.0003844 0.0
0.0012069 -0.0003601 0.0
0.0015482 -0.0003351 0.0
0.0018657 -0.0003095 0.0
0.0021588 -0.0002835 0.0
0.0024271 -0.0002572 0.0
0.0026703 -0.0002306 0.0
0.0028883 -0.0002039 0.0
0.0030808 -0.0001772 0.0
0.0032481 -0.0001506 0.0
0.0033901 -0.0001243 0.0
0.0035072 -0.0000983 0.0
0.0035996 -0.0000727 0.0
0.0036677 -0.0000476 0.0
0.0037121 -0.0000231 0.0
0.0037334 0.0000008 0.0
0.0037321 0.0000238 0.0
0.0037091 0.0000460 0.0
0.0036651 0.0000674 0.0
0.0036011 0.0000877 0.0
0.0035179 0.0001070 0.0
0.0034168 0.0001251 0.0
0.0032986 0.0001421 0.0
0.0031647 0.0001578 0.0
0.0030162 0.0001721 0.0
0.0028546 0.0001850 0.0
0.0026812 0.0001964 0.0
0.0024975 0.0002061 0.0
0.0023053 0.0002141 0.0
0.0021062 0.0002201 0.0
0.0019023 0.0002240 0.0
0.0016956 0.0002256 0.0
0.0014883 0.0002247 0.0
0.0012830 0.0002209 0.0
0.0010823 0.0002141 0.0
0.0008891 0.0002039 0.0
0.0007067 0.0001899 0.0
0.0005384 0.0001719 0.0
0.0003878 0.0001496 0.0
0.0002583 0.0001229 0.0
0.0001534 0.0000922 0.0
0.0000757 0.0000589 0.0
0.0000261 0.0000264 0.0
0.0000030 0.0000018 0.0
0.0000000 0.0000000 0.0
0.0000000 0.0000000 0.0
-0.0001461 -0.0003383 0.0
-0.0002185 -0.0004230 0.0
-0.0001920 -0.0003889 0.0
-0.0001112 -0.0003268 0.0
-0.0000116 -0.0002691 0.0
0.0000878 -0.0002216 0.0
0.0001777 -0.0001822 0.0
0.0002542 -0.0001477 0.0
0.0003153 -0.0001159 0.0
0.0003600 -0.0000855 0.0
0.0003877 -0.0000558 0.0
0.0003982 -0.0000267 0.0
0.0003912 0.0000021 0.0
0.0003667 0.0000305 0.0
0.0003248 0.0000584 0.0
0.0002658 0.0000857 0.0
0.0001898 0.0001124 0.0
0.0000972 0.0001384 0.0
-0.0000117 0.0001637 0.0
-0.0001366 0.0001883 0.0
-0.0002770 0.0002123 0.0
-0.0004326 0.0002356 0.0
-0.0006030 0.0002582 0.0
-0.0007878 0.0002803 0.0
-0.0009868 0.0003018 0.0
-0.0011997 0.0003229 0.0
-0.0014261 0.0003435 0.0
-0.0016659 0.0003638 0.0
-0.0019188 0.0003837 0.0
-0.0021846 0.0004034 0.0
-0.0024632 0.0004228 0.0
-0.0027544 0.0004421 0.0
-0.0030581 0.0004612 0.0
-0.0033743 0.0004801 0.0
-0.0037027 0.0004990 0.0
-0.0040432 0.0005177 0.0
-0.0043959 0.0005363 0.0
-0.0047606 0.0005547 0.0
-0.0051371 0.0005731 0.0
-0.0055254 0.0005913 0.0
-0.0059253 0.0006093 0.0
-0.0063366 0.0006272 0.0
-0.0067592 0.0006447 0.0
-0.0071929 0.0006620 0.0
-0.0076374 0.0006789 0.0
-0.0080924 0.0006955 0.0
-0.0085576 0.0007116 0.0
-0.0090327 0.0007271 0.0
-0.0095173 0.0007421 0.0
-0.0100109 0.0007564 0.0
-0.0105130 0.0007700 0.0
-0.0110231 0.0007828 0.0
-0.0115406 0.0007946 0.0
-0.0120649 0.0008055 0.0
-0.0125953 0.0008154 0.0
-0.0131309 0.0008241 0.0
-0.0136712 0.0008316 0.0
-0.0142150 0.0008377 0.0
-0.0147617 0.0008425 0.0
-0.0153102 0.0008458 0.0
-0.0158595 0.0008475 0.0
-0.0164086 0.0008476 0.0
-0.0169563 0.0008460 0.0
-0.0175015 0.0008425 0.0
-0.0180430 0.0008372 0.0
-0.0185796 0.0008299 0.0
-0.0191099 0.0008206 0.0
-0.0196328 0.0008093 0.0
-0.0201467 0.0007958 0.0
-0.0206504 0.0007801 0.0
-0.0211425 0.0007622 0.0
-0.0216214 0.0007421 0.0
-0.0220858 0.0007196 0.0
-0.0225343 0.0006948 0.0
-0.0229652 0.0006677 0.0
-0.0233773 0.0006383 0.0
-0.0237691 0.0006065 0.0
-0.0241390 0.0005725 0.0
-0.0244857 0.0005361 0.0
-0.0248078 0.0004975 0.0
-0.0251039 0.0004567 0.0
-0.0253726 0.0004137 0.0
-0.0256128 0.0003686 0.0
-0.0258231 0.0003216 0.0
-0.0260023 0.0002726 0.0
-0.0261494 0.0002218 0.0
-0.0262633 0.0001694 0.0
-0.0263431 0.0001153 0.0
-0.0263878 0.0000599 0.0
-0.0263967 0.0000032 0.0
-0.0263691 -0.0000547 0.0
-0.0263045 -0.0001135 0.0
-0.0262022 -0.0001730 0.0
-0.0260620 -0.0002332 0.0
-0.0258837 -0.0002937 0.0
-0.0256671 -0.0003544 0.0
-0.0254122 -0.0004151 0.0
-0.0251192 -0.0004755 0.0
-0.0247884 -0.0005354 0.0
-0.0244202 -0.0005947 0.0
-0.0240151 -0.0006530 0.0
-0.0235738 -0.0007101 0.0
-0.0230973 -0.0007659 0.0
-0.0225863 -0.0008200 0.0
-0.0220422 -0.0008723 0.0
-0.0214661 -0.0009225 0.0
-0.0208593 -0.0009704 0.0
-0.0202235 -0.0010158 0.0
-0.0195602 -0.0010585 0.0
-0.0188712 -0.0010983 0.0
-0.0181584 -0.0011351 0.0
-0.0174237 -0.0011685 0.0
-0.0166692 -0.0011985 0.0
-0.0158971 -0.0012250 0.0
-0.0151097 -0.0012478 0.0
-0.0143091 -0.0012668 0.0
-0.0134979 -0.0012819 0.0
-0.0126783 -0.0012930 0.0
-0.0118530 -0.0013001 0.0
-0.0110243 -0.0013031 0.0
-0.0101948 -0.0013021 0.0
-0.0093671 -0.0012970 0.0
-0.0085435 -0.0012879 0.0
-0.0077265 -0.0012748 0.0
-0.0069187 -0.0012577 0.0
-0.0061223 -0.0012368 0.0
-0.0053399 -0.0012123 0.0
-0.0045735 -0.0011841 0.0
-0.0038254 -0.0011524 0.0
-0.0030977 -0.0011175 0.0
-0.0023924 -0.0010795 0.0
-0.0017114 -0.0010386 0.0
-0.0010564 -0.0009949 0.0
-0.0004291 -0.0009488 0.0
0.0001690 -0.0009004 0.0
0.0007365 -0.0008499 0.0
0.0012723 -0.0007977 0.0
0.0017752 -0.0007440 0.0
0.0022443 -0.0006890 0.0
0.0026789 -0.0006329 0.0
0.0030782 -0.0005760 0.0
0.0034420 -0.0005187 0.0
0.0037697 -0.0004610 0.0
0.0040614 -0.0004033 0.0
0.0043169 -0.0003458 0.0
0.0045364 -0.0002887 0.0
0.0047202 -0.0002322 0.0
0.0048687 -0.0001766 0.0
0.0049825 -0.0001220 0.0
0.0050621 -0.0000687 0.0
0.0051084 -0.0000169 0.0
0.0051223 0.0000334 0.0
0.0051049 0.0000819 0.0
0.0050573 0.0001284 0.0
0.0049806 0.0001729 0.0
0.0048764 0.0002150 0.0
0.0047460 0.0002548 0.0
0.0045910 0.0002919 0.0
0.0044132 0.0003263 0.0
0.0042142 0.0003577 0.0
0.0039960 0.0003860 0.0
0.0037608 0.0004110 0.0
0.0035105 0.0004323 0.0
0.0032478 0.0004498 0.0
0.0029750 0.0004630 0.0
0.0026949 0.0004717 0.0
0.0024104 0.0004755 0.0
0.0021248 0.0004738 0.0
0.0018414 0.0004662 0.0
0.0015639 0.0004522 0.0
0.0012963 0.0004311 0.0
0.0010429 0.0004024 0.0
0.0008079 0.0003656 0.0
0.0005960 0.0003204 0.0
0.0004116 0.0002669 0.0
0.0002587 0.0002061 0.0
0.0001405 0.0001406 0.0
0.0000588 0.0000760 0.0
0.0000131 0.0000227 0.0
0.0000000 0.0000000 0.0
0.0000000 0.0000000 0.0
-0.0000576 -0.0002637 0.0
-0.0001057 -0.0003948 0.0
-0.0000990 -0.0004242 0.0
-0.0000461 -0.0004022 0.0
0.0000320 -0.0003605 0.0
0.0001176 -0.0003129 0.0
0.0001991 -0.0002644 0.0
0.0002691 -0.0002160 0.0
0.0003236 -0.0001676 0.0
0.0003599 -0.0001192 0.0
0.0003763 -0.0000706 0.0
0.0003719 -0.0000220 0.0
0.0003462 0.0000265 0.0
0.0002987 0.0000746 0.0
0.0002294 0.0001221 0.0
0.0001385 0.0001689 0.0
0.0000260 0.0002147 0.0
-0.0001076 0.0002596 0.0
-0.0002621 0.0003034 0.0
-0.0004371 0.0003461 0.0
-0.0006322 0.0003878 0.0
-0.0008468 0.0004283 0.0
-0.0010807 0.0004679 0.0
-0.0013333 0.0005065 0.0
-0.0016044 0.0005442 0.0
-0.0018935 0.0005811 0.0
-0.0022004 0.0006173 0.0
-0.0025247 0.0006529 0.0
-0.0028662 0.0006879 0.0
-0.0032247 0.0007225 0.0
-0.0035998 0.0007566 0.0
-0.0039915 0.0007904 0.0
-0.0043995 0.0008239 0.0
-0.0048237 0.0008571 0.0
-0.0052639 0.0008901 0.0
-0.0057201 0.0009228 0.0
-0.0061919 0.0009553 0.0
-0.0066793 0.0009875 0.0
-0.0071821 0.0010195 0.0
-0.0077002 0.0010511 0.0
-0.0082332 0.0010824 0.0
-0.0087809 0.0011133 0.0
-0.0093431 0.0011437 0.0
-0.0099195 0.0011735 0.0
-0.0105096 0.0012026 0.0
-0.0111131 0.0012310 0.0
-0.0117296 0.0012585 0.0
-0.0123585 0.0012851 0.0
-0.0129992 0.0013106 0.0
-0.0136512 0.0013348 0.0
-0.0143138 0.0013577 0.0
-0.0149862 0.0013791 0.0
-0.0156676 0.0013989 0.0
-0.0163572 0.0014170 0.0
-0.0170540 0.0014331 0.0
-0.0177570 0.0014473 0.0
-0.0184651 0.0014592 0.0
-0.0191772 0.0014688 0.0
-0.0198922 0.0014759 0.0
-0.0206086 0.0014803 0.0
-0.0213253 0.0014821 0.0
-0.0220407 0.0014809 0.0
-0.0227535 0.0014767 0.0
-0.0234622 0.0014693 0.0
-0.0241651 0.0014586 0.0
-0.0248607 0.0014446 0.0
-0.0255473 0.0014270 0.0
-0.0262232 0.0014058 0.0
-0.0268867 0.0013810 0.0
-0.0275359 0.0013523 0.0
-0.0281692 0.0013198 0.0
-0.0287845 0.0012834 0.0
-0.0293802 0.0012430 0.0
-0.0299544 0.0011987 0.0
-0.0305052 0.0011503 0.0
-0.0310307 0.0010980 0.0
-0.0315292 0.0010417 0.0
-0.0319988 0.0009814 0.0
-0.0324378 0.0009173 0.0