# vtk DataFile Version 2.0
Lid Driven Cavity Flow
ASCII
DATASET STRUCTURED_GRID
DIMENSIONS 181 181 1
POINTS 32761 float
0.0000000 0.0000000 0.0
0.0055556 0.0000000 0.0
0.0111111 0.0000000 0.0
0.0166667 0.0000000 0.0
0.0222222 0.0000000 0.0
0.0277778 0.0000000 0.0
0.0333333 0.0000000 0.0
0.0388889 0.0000000 0.0
0.0444444 0.0000000 0.0
0.0500000 0.0000000 0.0
0.0555556 0.0000000 0.0
0.0611111 0.0000000 0.0
0.0666667 0.0000000 0.0
0.0722222 0.0000000 0.0
0.0777778 0.0000000 0.0
0.0833333 0.0000000 0.0
0.0888889 0.0000000 0.0
0.0944444 0.0000000 0.0
0.1000000 0.0000000 0.0
0.1055556 0.0000000 0.0
0.1111111 0.0000000 0.0
0.1166667 0.0000000 0.0
0.1222222 0.0000000 0.0
0.1277778 0.0000000 0.0
0.1333333 0.0000000 0.0
0.1388889 0.0000000 0.0
0.1444444 0.0000000 0.0
0.1500000 0.0000000 0.0
0.1555556 0.0000000 0.0
0.1611111 0.0000000 0.0
0.1666667 0.0000000 0.0
0.1722222 0.0000000 0.0
0.1777778 0.0000000 0.0
0.1833333 0.0000000 0.0
0.1888889 0.0000000 0.0
0.1944444 0.0000000 0.0
0.2000000 0.0000000 0.0
0.2055556 0.0000000 0.0
0.2111111 0.0000000 0.0
0.2166667 0.0000000 0.0
0.2222222 0.0000000 0.0
0.2277778 0.0000000 0.0
0.2333333 0.0000000 0.0
0.2388889 0.0000000 0.0
0.2444444 0.0000000 0.0
0.2500000 0.0000000 0.0
0.2555556 0.0000000 0.0
0.2611111 0.0000000 0.0
0.2666667 0.0000000 0.0
0.2722222 0.0000000 0.0
0.2777778 0.0000000 0.0
0.2833333 0.0000000 0.0
0.2888889 0.0000000 0.0
0.2944444 0.0000000 0.0
0.3000000 0.0000000 0.0
0.3055556 0.0000000 0.0
0.3111111 0.0000000 0.0
0.3166667 0.0000000 0.0
0.3222222 0.0000000 0.0
0.3277778 0.0000000 0.0
0.3333333 0.0000000 0.0
0.3388889 0.0000000 0.0
0.3444444 0.0000000 0.0
0.3500000 0.0000000 0.0
0.3555556 0.0000000 0.0
0.3611111 0.0000000 0.0
0.3666667 0.0000000 0.0
0.3722222 0.0000000 0.0
0.3777778 0.0000000 0.0
0.3833333 0.0000000 0.0
0.3888889 0.0000000 0.0
0.3944444 0.0000000 0.0
0.4000000 0.0000000 0.0
0.4055556 0.0000000 0.0
0.4111111 0.0000000 0.0
0.4166667 0.0000000 0.0
0.4222222 0.0000000 0.0
0.4277778 0.0000000 0.0
0.4333333 0.0000000 0.0
0.4388889 0.0000000 0.0
0.4444444 0.0000000 0.0
0.4500000 0.0000000 0.0
0.4555556 0.0000000 0.0
0.4611111 0.0000000 0.0
0.4666667 0.0000000 0.0
0.4722222 0.0000000 0.0
0.4777778 0.0000000 0.0
0.4833333 0.0000000 0.0
0.4888889 0.0000000 0.0
0.4944444 0.0000000 0.0
0.5000000 0.0000000 0.0
0.5055556 0.0000000 0.0
0.5111111 0.0000000 0.0
0.5166667 0.0000000 0.0
0.5222222 0.0000000 0.0
0.5277778 0.0000000 0.0
0.5333333 0.0000000 0.0
0.5388889 0.0000000 0.0
0.5444444 0.0000000 0.0
0.5500000 0.0000000 0.0
0.5555556 0.0000000 0.0
0.5611111 0.0000000 0.0
0.5666667 0.0000000 0.0
0.5722222 0.0000000 0.0
0.5777778 0.0000000 0.0
0.5833333 0.0000000 0.0
0.5888889 0.0000000 0.0
0.5944444 0.0000000 0.0
0.6000000 0.0000000 0.0
0.6055556 0.0000000 0.0
0.6111111 0.0000000 0.0
0.6166667 0.0000000 0.0
0.6222222 0.0000000 0.0
0.6277778 0.0000000 0.0
0.6333333 0.0000000 0.0
0.6388889 0.0000000 0.0
0.6444444 0.0000000 0.0
0.6500000 0.0000000 0.0
0.6555556 0.0000000 0.0
0.6611111 0.0000000 0.0
0.6666667 0.0000000 0.0
0.6722222 0.0000000 0.0
0.6777778 0.0000000 0.0
0.6833333 0.0000000 0.0
0.6888889 0.0000000 0.0
0.6944444 0.0000000 0.0
0.7000000 0.0000000 0.0
0.7055556 0.0000000 0.0
0.7111111 0.0000000 0.0
0.7166667 0.0000000 0.0
0.7222222 0.0000000 0.0
0.7277778 0.0000000 0.0
0.7333333 0.0000000 0.0
0.7388889 0.0000000 0.0
0.7444444 0.0000000 0.0
0.7500000 0.0000000 0.0
0.7555556 0.0000000 0.0
0.7611111 0.0000000 0.0
0.7666667 0.0000000 0.0
0.7722222 0.0000000 0.0
0.7777778 0.0000000 0.0
0.7833333 0.0000000 0.0
0.7888889 0.0000000 0.0
0.7944444 0.0000000 0.0
0.8000000 0.0000000 0.0
0.8055556 0.0000000 0.0
0.8111111 0.0000000 0.0
0.8166667 0.0000000 0.0
0.8222222 0.0000000 0.0
0.8277778 0.0000000 0.0
0.8333333 0.0000000 0.0
0.8388889 0.0000000 0.0
0.8444444 0.0000000 0.0
0.8500000 0.0000000 0.0
0.8555556 0.0000000 0.0
0.8611111 0.0000000 0.0
0.8666667 0.0000000 0.0
0.8722222 0.0000000 0.0
0.8777778 0.0000000 0.0
0.8833333 0.0000000 0.0
0.8888889 0.0000000 0.0
0.8944444 0.0000000 0.0
0.9000000 0.0000000 0.0
0.9055556 0.0000000 0.0
0.9111111 0.0000000 0.0
0.9166667 0.0000000 0.0
0.9222222 0.0000000 0.0
0.9277778 0.0000000 0.0
0.9333333 0.0000000 0.0
0.9388889 0.0000000 0.0
0.9444444 0.0000000 0.0
0.9500000 0.0000000 0.0
0.9555556 0.0000000 0.0
0.9611111 0.0000000 0.0
0.9666667 0.0000000 0.0
0.9722222 0.0000000 0.0
0.9777778 0.0000000 0.0
0.9833333 0.0000000 0.0
0.9888889 0.0000000 0.0
0.9944444 0.0000000 0.0
1.0000000 0.0000000 0.0
0.0000000 0.0055556 0.0
0.0055556 0.0055556 0.0
0.0111111 0.0055556 0.0
0.0166667 0.0055556 0.0
0.0222222 0.0055556 0.0
0.0277778 0.0055556 0.0
0.0333333 0.0055556 0.0
0.0388889 0.0055556 0.0
0.0444444 0.0055556 0.0
0.0500000 0.0055556 0.0
0.0555556 0.0055556 0.0
0.0611111 0.0055556 0.0
0.0666667 0.0055556 0.0
0.0722222 0.0055556 0.0
0.0777778 0.0055556 0.0
0.0833333 0.0055556 0.0
0.0888889 0.0055556 0.0
0.0944444 0.0055556 0.0
0.1000000 0.0055556 0.0
0.1055556 0.0055556 0.0
0.1111111 0.0055556 0.0
0.1166667 0.0055556 0.0
0.1222222 0.0055556 0.0
0.1277778 0.0055556 0.0
0.1333333 0.0055556 0.0
0.1388889 0.0055556 0.0
0.1444444 0.0055556 0.0
0.1500000 0.0055556 0.0
0.1555556 0.0055556 0.0
0.1611111 0.0055556 0.0
0.1666667 0.0055556 0.0
0.1722222 0.0055556 0.0
0.1777778 0.0055556 0.0
0.1833333 0.0055556 0.0
0.1888889 0.0055556 0.0
0.1944444 0.0055556 0.0
0.2000000 0.0055556 0.0
0.2055556 0.0055556 0.0
0.2111111 0.0055556 0.0
0.2166667 0.0055556 0.0
0.2222222 0.0055556 0.0
0.2277778 0.0055556 0.0
0.2333333 0.0055556 0.0
0.2388889 0.0055556 0.0
0.2444444 0.0055556 0.0
0.2500000 0.0055556 0.0
0.2555556 0.0055556 0.0
0.2611111 0.0055556 0.0
0.2666667 0.0055556 0.0
0.2722222 0.0055556 0.0
0.2777778 0.0055556 0.0
0.2833333 0.0055556 0.0
0.2888889 0.0055556 0.0
0.2944444 0.0055556 0.0
0.3000000 0.0055556 0.0
0.3055556 0.0055556 0.0
0.3111111 0.0055556 0.0
0.3166667 0.0055556 0.0
0.3222222 0.0055556 0.0
0.3277778 0.0055556 0.0
0.3333333 0.0055556 0.0
0.3388889 0.0055556 0.0
0.3444444 0.0055556 0.0
0.3500000 0.0055556 0.0
0.3555556 0.0055556 0.0
0.3611111 0.0055556 0.0
0.3666667 0.0055556 0.0
0.3722222 0.0055556 0.0
0.3777778 0.0055556 0.0
0.3833333 0.0055556 0.0
0.3888889 0.0055556 0.0
0.3944444 0.0055556 0.0
0.4000000 0.0055556 0.0
0.4055556 0.0055556 0.0
0.4111111 0.0055556 0.0
0.4166667 0.0055556 0.0
0.4222222 0.0055556 0.0
0.4277778 0.0055556 0.0
0.4333333 0.0055556 0.0
0.4388889 0.0055556 0.0
0.4444444 0.0055556 0.0
0.4500000 0.0055556 0.0
0.4555556 0.0055556 0.0
0.4611111 0.0055556 0.0
0.4666667 0.0055556 0.0
0.4722222 0.0055556 0.0
0.4777778 0.0055556 0.0
0.4833333 0.0055556 0.0
0.4888889 0.0055556 0.0
0.4944444 0.0055556 0.0
0.5000000 0.0055556 0.0
0.5055556 0.0055556 0.0
0.5111111 0.0055556 0.0
0.5166667 0.0055556 0.0
0.5222222 0.0055556 0.0
0.5277778 0.0055556 0.0
0.5333333 0.0055556 0.0
0.5388889 0.0055556 0.0
0.5444444 0.0055556 0.0
0.5500000 0.0055556 0.0
0.5555556 0.0055556 0.0
0.5611111 0.0055556 0.0
0.5666667 0.0055556 0.0
0.5722222 0.0055556 0.0
0.5777778 0.0055556 0.0
0.5833333 0.0055556 0.0
0.5888889 0.0055556 0.0
0.5944444 0.0055556 0.0
0.6000000 0.0055556 0.0
0.6055556 0.0055556 0.0
0.6111111 0.0055556 0.0
0.6166667 0.0055556 0.0
0.6222222 0.0055556 0.0
0.6277778 0.0055556 0.0
0.6333333 0.0055556 0.0
0.6388889 0.0055556 0.0
0.6444444 0.0055556 0.0
0.6500000 0.0055556 0.0
0.6555556 0.0055556 0.0
0.6611111 0.0055556 0.0
0.6666667 0.0055556 0.0
0.6722222 0.0055556 0.0
0.6777778 0.0055556 0.0
0.6833333 0.0055556 0.0
0.6888889 0.0055556 0.0
0.6944444 0.0055556 0.0
0.7000000 0.0055556 0.0
0.7055556 0.0055556 0.0
0.7111111 0.0055556 0.0
0.7166667 0.0055556 0.0
0.7222222 0.0055556 0.0
0.7277778 0.0055556 0.0
0.7333333 0.0055556 0.0
0.7388889 0.0055556 0.0
0.7444444 0.0055556 0.0
0.7500000 0.0055556 0.0
0.7555556 0.0055556 0.0
0.7611111 0.0055556 0.0
0.7666667 0.0055556 0.0
0.7722222 0.0055556 0.0
0.7777778 0.0055556 0.0
0.7833333 0.0055556 0.0
0.7888889 0.0055556 0.0
0.7944444 0.0055556 0.0
0.8000000 0.0055556 0.0
0.8055556 0.0055556 0.0
0.8111111 0.0055556 0.0
0.8166667 0.0055556 0.0
0.8222222 0.0055556 0.0
0.8277778 0.0055556 0.0
0.8333333 0.0055556 0.0
0.8388889 0.0055556 0.0
0.8444444 0.0055556 0.0
0.8500000 0.0055556 0.0
0.8555556 0.0055556 0.0
0.8611111 0.0055556 0.0
0.8666667 0.0055556 0.0
0.8722222 0.0055556 0.0
0.8777778 0.0055556 0.0
0.8833333 0.0055556 0.0
0.8888889 0.0055556 0.0
0.8944444 0.0055556 0.0
0.9000000 0.0055556 0.0
0.9055556 0.0055556 0.0
0.9111111 0.0055556 0.0
0.9166667 0.0055556 0.0
0.9222222 0.0055556 0.0
0.9277778 0.0055556 0.0
0.9333333 0.0055556 0.0
0.9388889 0.0055556 0.0
0.9444444 0.0055556 0.0
0.9500000 0.0055556 0.0
0.9555556 0.0055556 0.0
0.9611111 0.0055556 0.0
0.9666667 0.0055556 0.0
0.9722222 0.0055556 0.0
0.9777778 0.0055556 0.0
0.9833333 0.0055556 0.0
0.9888889 0.0055556 0.0
0.9944444 0.0055556 0.0
1.0000000 0.0055556 0.0
0.0000000 0.0111111 0.0
0.0055556 0.0111111 0.0
0.0111111 0.0111111 0.0
0.0166667 0.0111111 0.0
0.0222222 0.0111111 0.0
0.0277778 0.0111111 0.0
0.0333333 0.0111111 0.0
0.0388889 0.0111111 0.0
0.0444444 0.0111111 0.0
0.0500000 0.0111111 0.0
0.0555556 0.0111111 0.0
0.0611111 0.0111111 0.0
0.0666667 0.0111111 0.0
0.0722222 0.0111111 0.0
0.0777778 0.0111111 0.0
0.0833333 0.0111111 0.0
0.0888889 0.0111111 0.0
0.0944444 0.0111111 0.0
0.1000000 0.0111111 0.0
0.1055556 0.0111111 0.0
0.1111111 0.0111111 0.0
0.1166667 0.0111111 0.0
0.1222222 0.0111111 0.0
0.1277778 0.0111111 0.0
0.1333333 0.0111111 0.0
0.1388889 0.0111111 0.0
0.1444444 0.0111111 0.0
0.1500000 0.0111111 0.0
0.1555556 0.0111111 0.0
0.1611111 0.0111111 0.0
0.1666667 0.0111111 0.0
0.1722222 0.0111111 0.0
0.1777778 0.0111111 0.0
0.1833333 0.0111111 0.0
0.1888889 0.0111111 0.0
0.1944444 0.0111111 0.0
0.2000000 0.0111111 0.0
0.2055556 0.0111111 0.0
0.2111111 0.0111111 0.0
0.2166667 0.0111111 0.0
0.2222222 0.0111111 0.0
0.2277778 0.0111111 0.0
0.2333333 0.0111111 0.0
0.2388889 0.0111111 0.0
0.2444444 0.0111111 0.0
0.2500000 0.0111111 0.0
0.2555556 0.0111111 0.0
0.2611111 0.0111111 0.0
0.2666667 0.0111111 0.0
[...]
POINT_DATA 32761
VECTORS velocity float
0.0000000 0.0000000 0.0
0.0000000 0.0000000 0.0
0.0000000 0.0000000 0.0
0.0000000 0.0000000 0.0
0.0000000 0.0000000 0.0
0.0000000 0.0000000 0.0
0.0000000 0.0000000 0.0
0.0000000 0.0000000 0.0
0.0000000 0.0000000 0.0
0.0000000 0.0000000 0.0
0.0000000 0.0000000 0.0
0.0000000 0.0000000 0.0
0.0000000 0.0000000 0.0
0.0000000 0.0000000 0.0
0.0000000 0.0000000 0.0
0.0000000 0.0000000 0.0
0.0000000 0.0000000 0.0
0.0000000 0.0000000 0.0
0.0000000 0.0000000 0.0
0.0000000 0.0000000 0.0
0.0000000 0.0000000 0.0
0.0000000 0.0000000 0.0
0.0000000 0.0000000 0.0
0.0000000 0.0000000 0.0
0.0000000 0.0000000 0.0
0.0000000 0.0000000 0.0
0.0000000 0.0000000 0.0
0.0000000 0.0000000 0.0
0.0000000 0.0000000 0.0
0.0000000 0.0000000 0.0
0.0000000 0.0000000 0.0
0.0000000 0.0000000 0.0
0.0000000 0.0000000 0.0
0.0000000 0.0000000 0.0
0.0000000 0.0000000 0.0
0.0000000 0.0000000 0.0
0.0000000 0.0000000 0.0
0.0000000 0.0000000 0.0
0.0000000 0.0000000 0.0
0.0000000 0.0000000 0.0
0.0000000 0.0000000 0.0
0.0000000 0.0000000 0.0
0.0000000 0.0000000 0.0
0.0000000 0.0000000 0.0
0.0000000 0.0000000 0.0
0.0000000 0.0000000 0.0
0.0000000 0.0000000 0.0
0.0000000 0.0000000 0.0
0.0000000 0.0000000 0.0
0.0000000 0.0000000 0.0
0.0000000 0.0000000 0.0
0.0000000 0.0000000 0.0
0.0000000 0.0000000 0.0
0.0000000 0.0000000 0.0
0.0000000 0.0000000 0.0
0.0000000 0.0000000 0.0
0.0000000 0.0000000 0.0
0.0000000 0.0000000 0.0
0.0000000 0.0000000 0.0
0.0000000 0.0000000 0.0
0.0000000 0.0000000 0.0
0.0000000 0.0000000 0.0
0.0000000 0.0000000 0.0
0.0000000 0.0000000 0.0
0.0000000 0.0000000 0.0
0.0000000 0.0000000 0.0
0.0000000 0.0000000 0.0
0.0000000 0.0000000 0.0
0.0000000 0.0000000 0.0
0.0000000 0.0000000 0.0
0.0000000 0.0000000 0.0
0.0000000 0.0000000 0.0
0.0000000 0.0000000 0.0
0.0000000 0.0000000 0.0
0.0000000 0.0000000 0.0
0.0000000 0.0000000 0.0
0.0000000 0.0000000 0.0
0.0000000 0.0000000 0.0
0.0000000 0.0000000 0.0
0.0000000 0.0000000 0.0
0.0000000 0.0000000 0.0
0.0000000 0.0000000 0.0
0.0000000 0.0000000 0.0
0.0000000 0.0000000 0.0
0.0000000 0.0000000 0.0
0.0000000 0.0000000 0.0
0.0000000 0.0000000 0.0
0.0000000 0.0000000 0.0
0.0000000 0.0000000 0.0
0.0000000 0.0000000 0.0
0.0000000 0.0000000 0.0
0.0000000 0.0000000 0.0
0.0000000 0.0000000 0.0
0.0000000 0.0000000 0.0
0.0000000 0.0000000 0.0
0.0000000 0.0000000 0.0
0.0000000 0.0000000 0.0
0.0000000 0.0000000 0.0
0.0000000 0.0000000 0.0
0.0000000 0.0000000 0.0
0.0000000 0.0000000 0.0
0.0000000 0.0000000 0.0
0.0000000 0.0000000 0.0
0.0000000 0.0000000 0.0
0.0000000 0.0000000 0.0
0.0000000 0.0000000 0.0
0.0000000 0.0000000 0.0
0.0000000 0.0000000 0.0
0.0000000 0.0000000 0.0
0.0000000 0.0000000 0.0
0.0000000 0.0000000 0.0
0.0000000 0.0000000 0.0
0.0000000 0.0000000 0.0
0.0000000 0.0000000 0.0
0.0000000 0.0000000 0.0
0.0000000 0.0000000 0.0
0.0000000 0.0000000 0.0
0.0000000 0.0000000 0.0
0.0000000 0.0000000 0.0
0.0000000 0.0000000 0.0
0.0000000 0.0000000 0.0
0.0000000 0.0000000 0.0
0.0000000 0.0000000 0.0
0.0000000 0.0000000 0.0
0.0000000 0.0000000 0.0
0.0000000 0.0000000 0.0
0.0000000 0.0000000 0.0
0.0000000 0.0000000 0.0
0.0000000 0.0000000 0.0
0.0000000 0.0000000 0.0
0.0000000 0.0000000 0.0
0.0000000 0.0000000 0.0
0.0000000 0.0000000 0.0
0.0000000 0.0000000 0.0
0.0000000 0.0000000 0.0
0.0000000 0.0000000 0.0
0.0000000 0.0000000 0.0
0.0000000 0.0000000 0.0
0.0000000 0.0000000 0.0
0.0000000 0.0000000 0.0
0.0000000 0.0000000 0.0
0.0000000 0.0000000 0.0
0.0000000 0.0000000 0.0
0.0000000 0.0000000 0.0
0.0000000 0.0000000 0.0
0.0000000 0.0000000 0.0
0.0000000 0.0000000 0.0
0.0000000 0.0000000 0.0
0.0000000 0.0000000 0.0
0.0000000 0.0000000 0.0
0.0000000 0.0000000 0.0
0.0000000 0.0000000 0.0
0.0000000 0.0000000 0.0
0.0000000 0.0000000 0.0
0.0000000 0.0000000 0.0
0.0000000 0.0000000 0.0
0.0000000 0.0000000 0.0
0.0000000 0.0000000 0.0
0.0000000 0.0000000 0.0
0.0000000 0.0000000 0.0
0.0000000 0.0000000 0.0
0.0000000 0.0000000 0.0
0.0000000 0.0000000 0.0
0.0000000 0.0000000 0.0
0.0000000 0.0000000 0.0
0.0000000 0.0000000 0.0
0.0000000 0.0000000 0.0
0.0000000 0.0000000 0.0
0.0000000 0.0000000 0.0
0.0000000 0.0000000 0.0
0.0000000 0.0000000 0.0
0.0000000 0.0000000 0.0
0.0000000 0.0000000 0.0
0.0000000 0.0000000 0.0
0.0000000 0.0000000 0.0
0.0000000 0.0000000 0.0
0.0000000 0.0000000 0.0
0.0000000 0.0000000 0.0
0.0000000 0.0000000 0.0
0.0000000 0.0000000 0.0
0.0000014 0.0000000 0.0
0.0000000 0.0000000 0.0
0.0000034 -0.0000034 0.0
0.0000166 -0.0000095 0.0
0.0000382 -0.0000143 0.0
0.0000656 -0.0000172 0.0
0.0000959 -0.0000185 0.0
0.0001268 -0.0000184 0.0
0.0001565 -0.0000173 0.0
0.0001835 -0.0000155 0.0
0.0002067 -0.0000132 0.0
0.0002254 -0.0000106 0.0
0.0002389 -0.0000077 0.0
0.0002468 -0.0000046 0.0
0.0002489 -0.0000015 0.0
0.0002451 0.0000017 0.0
0.0002354 0.0000049 0.0
0.0002197 0.0000080 0.0
0.0001981 0.0000110 0.0
0.0001707 0.0000140 0.0
0.0001377 0.0000169 0.0
0.0000991 0.0000197 0.0
0.0000552 0.0000224 0.0
0.0000060 0.0000251 0.0
-0.0000482 0.0000277 0.0
-0.0001075 0.0000302 0.0
-0.0001716 0.0000326 0.0
-0.0002404 0.0000350 0.0
-0.0003138 0.0000373 0.0
-0.0003918 0.0000396 0.0
-0.0004743 0.0000419 0.0
-0.0005612 0.0000441 0.0
-0.0006524 0.0000463 0.0
-0.0007480 0.0000485 0.0
-0.0008479 0.0000506 0.0
-0.0009520 0.0000528 0.0
-0.0010604 0.0000550 0.0
-0.0011729 0.0000571 0.0
-0.0012897 0.0000593 0.0
-0.0014107 0.0000614 0.0
-0.0015359 0.0000636 0.0
-0.0016652 0.0000657 0.0
-0.0017986 0.0000678 0.0
-0.0019362 0.0000699 0.0
-0.0020777 0.0000720 0.0
-0.0022233 0.0000741 0.0
-0.0023728 0.0000761 0.0
-0.0025261 0.0000781 0.0
-0.0026832 0.0000801 0.0
-0.0028440 0.0000820 0.0
-0.0030084 0.0000838 0.0
-0.0031761 0.0000856 0.0
-0.0033472 0.0000873 0.0
-0.0035213 0.0000889 0.0
-0.0036984 0.0000905 0.0
-0.0038782 0.0000919 0.0
-0.0040604 0.0000932 0.0
-0.0042450 0.0000944 0.0
-0.0044315 0.0000955 0.0
-0.0046198 0.0000964 0.0
-0.0048094 0.0000971 0.0
-0.0050002 0.0000977 0.0
-0.0051917 0.0000981 0.0
-0.0053836 0.0000984 0.0
-0.0055755 0.0000984 0.0
-0.0057670 0.0000982 0.0
-0.0059578 0.0000978 0.0
-0.0061473 0.0000972 0.0
-0.0063351 0.0000964 0.0
-0.0065208 0.0000953 0.0
-0.0067039 0.0000939 0.0
-0.0068838 0.0000923 0.0
-0.0070602 0.0000904 0.0
-0.0072324 0.0000883 0.0
-0.0073999 0.0000859 0.0
-0.0075623 0.0000832 0.0
-0.0077189 0.0000802 0.0
-0.0078692 0.0000770 0.0
-0.0080128 0.0000734 0.0
-0.0081490 0.0000696 0.0
-0.0082773 0.0000655 0.0
-0.0083973 0.0000611 0.0
-0.0085082 0.0000564 0.0
-0.0086098 0.0000514 0.0
-0.0087014 0.0000462 0.0
-0.0087825 0.0000408 0.0
-0.0088528 0.0000351 0.0
-0.0089118 0.0000291 0.0
-0.0089590 0.0000230 0.0
-0.0089941 0.0000166 0.0
-0.0090166 0.0000101 0.0
-0.0090264 0.0000033 0.0
-0.0090230 -0.0000035 0.0
-0.0090063 -0.0000106 0.0
-0.0089760 -0.0000177 0.0
-0.0089320 -0.0000249 0.0
-0.0088740 -0.0000322 0.0
-0.0088021 -0.0000395 0.0
-0.0087163 -0.0000468 0.0
-0.0086164 -0.0000541 0.0
-0.0085027 -0.0000614 0.0
-0.0083752 -0.0000686 0.0
-0.0082341 -0.0000756 0.0
-0.0080796 -0.0000826 0.0
-0.0079121 -0.0000894 0.0
-0.0077318 -0.0000960 0.0
-0.0075392 -0.0001024 0.0
-0.0073347 -0.0001086 0.0
-0.0071188 -0.0001144 0.0
-0.0068921 -0.0001200 0.0
-0.0066551 -0.0001252 0.0
-0.0064085 -0.0001301 0.0
-0.0061531 -0.0001346 0.0
-0.0058895 -0.0001387 0.0
-0.0056186 -0.0001424 0.0
-0.0053411 -0.0001457 0.0
-0.0050578 -0.0001484 0.0
-0.0047697 -0.0001508 0.0
-0.0044777 -0.0001526 0.0
-0.0041827 -0.0001539 0.0
-0.0038856 -0.0001548 0.0
-0.0035873 -0.0001551 0.0
-0.0032888 -0.0001549 0.0
-0.0029911 -0.0001543 0.0
-0.0026951 -0.0001531 0.0
-0.0024017 -0.0001514 0.0
-0.0021119 -0.0001492 0.0
-0.0018266 -0.0001466 0.0
-0.0015466 -0.0001435 0.0
-0.0012728 -0.0001400 0.0
-0.0010060 -0.0001360 0.0
-0.0007470 -0.0001316 0.0
-0.0004966 -0.0001269 0.0
-0.0002554 -0.0001218 0.0
-0.0000242 -0.0001164 0.0
0.0001966 -0.0001106 0.0
0.0004064 -0.0001046 0.0
0.0006046 -0.0000984 0.0
0.0007909 -0.0000920 0.0
0.0009648 -0.0000853 0.0
0.0011261 -0.0000786 0.0
0.0012745 -0.0000717 0.0
0.0014098 -0.0000647 0.0
0.0015318 -0.0000577 0.0
0.0016405 -0.0000507 0.0
0.0017358 -0.0000437 0.0
0.0018178 -0.0000367 0.0
0.0018865 -0.0000298 0.0
0.0019422 -0.0000230 0.0
0.0019849 -0.0000163 0.0
0.0020150 -0.0000097 0.0
0.0020326 -0.0000033 0.0
0.0020381 0.0000029 0.0
0.0020320 0.0000089 0.0
0.0020145 0.0000147 0.0
0.0019860 0.0000202 0.0
0.0019472 0.0000255 0.0
0.0018985 0.0000305 0.0
0.0018404 0.0000352 0.0
0.0017735 0.0000396 0.0
0.0016984 0.0000437 0.0
0.0016158 0.0000474 0.0
0.0015264 0.0000508 0.0
0.0014309 0.0000537 0.0
0.0013301 0.0000562 0.0
0.0012249 0.0000583 0.0
0.0011162 0.0000598 0.0
0.0010050 0.0000609 0.0
0.0008923 0.0000613 0.0
0.0007795 0.0000610 0.0
0.0006678 0.0000600 0.0
0.0005587 0.0000581 0.0
0.0004538 0.0000553 0.0
0.0003550 0.0000515 0.0
0.0002641 0.0000464 0.0
0.0001832 0.0000401 0.0
0.0001146 0.0000323 0.0
0.0000605 0.0000232 0.0
0.0000226 0.0000131 0.0
0.0000017 0.0000031 0.0
-0.0000036 -0.0000036 0.0
0.0000000 0.0000000 0.0
0.0000000 0.0000000 0.0
0.0000095 -0.0000166 0.0
0.0000350 -0.0000349 0.0
0.0000726 -0.0000490 0.0
0.0001185 -0.0000576 0.0
0.0001685 -0.0000612 0.0
0.0002189 -0.0000606 0.0
0.0002668 -0.0000567 0.0
0.0003095 -0.0000502 0.0
0.0003453 -0.0000419 0.0
0.0003726 -0.0000321 0.0
0.0003903 -0.0000214 0.0
0.0003977 -0.0000101 0.0
0.0003943 0.0000016 0.0
0.0003797 0.0000135 0.0
0.0003538 0.0000255 0.0
0.0003166 0.0000373 0.0
0.0002682 0.0000490 0.0
0.0002088 0.0000604 0.0
0.0001384 0.0000716 0.0
0.0000573 0.0000825 0.0
-0.0000341 0.0000931 0.0
-0.0001358 0.0001034 0.0
-0.0002474 0.0001135 0.0
-0.0003687 0.0001233 0.0
-0.0004995 0.0001329 0.0
-0.0006396 0.0001423 0.0
-0.0007888 0.0001514 0.0
-0.0009469 0.0001605 0.0
-0.0011139 0.0001694 0.0
-0.0012896 0.0001781 0.0
-0.0014739 0.0001868 0.0
-0.0016666 0.0001954 0.0
-0.0018679 0.0002040 0.0
-0.0020775 0.0002125 0.0
-0.0022954 0.0002210 0.0
-0.0025216 0.0002294 0.0
-0.0027560 0.0002378 0.0
-0.0029986 0.0002462 0.0
-0.0032493 0.0002545 0.0
-0.0035080 0.0002627 0.0
-0.0037748 0.0002710 0.0
-0.0040494 0.0002791 0.0
-0.0043319 0.0002871 0.0
-0.0046220 0.0002950 0.0
-0.0049196 0.0003028 0.0
-0.0052246 0.0003105 0.0
-0.0055367 0.0003179 0.0
-0.0058558 0.0003251 0.0
-0.0061816 0.0003321 0.0
-0.0065138 0.0003388 0.0
-0.0068522 0.0003452 0.0
-0.0071962 0.0003512 0.0
-0.0075457 0.0003568 0.0
-0.0079001 0.0003621 0.0
-0.0082591 0.0003668 0.0
-0.0086220 0.0003711 0.0
-0.0089885 0.0003748 0.0
-0.0093578 0.0003779 0.0
-0.0097295 0.0003804 0.0
-0.0101029 0.0003823 0.0
-0.0104773 0.0003834 0.0
-0.0108520 0.0003838 0.0
-0.0112263 0.0003835 0.0
-0.0115993 0.0003823 0.0
-0.0119703 0.0003803 0.0
-0.0123385 0.0003773 0.0
-0.0127028 0.0003735 0.0
-0.0130625 0.0003688 0.0
-0.0134166 0.0003630 0.0
-0.0137641 0.0003563 0.0
-0.0141041 0.0003485 0.0
-0.0144357 0.0003397 0.0
-0.0147577 0.0003299 0.0
-0.0150692 0.0003190 0.0
-0.0153691 0.0003070 0.0
-0.0156565 0.0002939 0.0
-0.0159303 0.0002798 0.0
-0.0161894 0.0002645 0.0
-0.0164330 0.0002482 0.0
-0.0166599 0.0002309 0.0
-0.0168692 0.0002125 0.0
-0.0170600 0.0001931 0.0
-0.0172313 0.0001728 0.0
-0.0173822 0.0001515 0.0
-0.0175119 0.0001292 0.0
-0.0176196 0.0001062 0.0
-0.0177044 0.0000823 0.0
-0.0177658 0.0000577 0.0
-0.0178030 0.0000323 0.0
-0.0178155 0.0000064 0.0
-0.0178027 -0.0000201 0.0
-0.0177642 -0.0000470 0.0
-0.0176996 -0.0000744 0.0
-0.0176087 -0.0001020 0.0
-0.0174912 -0.0001298 0.0
-0.0173470 -0.0001578 0.0
-0.0171761 -0.0001857 0.0
-0.0169786 -0.0002136 0.0
-0.0167546 -0.0002412 0.0
-0.0165044 -0.0002686 0.0
-0.0162284 -0.0002956 0.0
-0.0159269 -0.0003220 0.0
-0.0156007 -0.0003478 0.0
-0.0152503 -0.0003729 0.0
-0.0148766 -0.0003971 0.0
-0.0144803 -0.0004204 0.0
-0.0140625 -0.0004426 0.0
-0.0136242 -0.0004637 0.0
-0.0131666 -0.0004835 0.0
-0.0126908 -0.0005020 0.0
-0.0121982 -0.0005190 0.0
-0.0116903 -0.0005345 0.0
-0.0111684 -0.0005485 0.0
-0.0106340 -0.0005607 0.0
-0.0100889 -0.0005713 0.0
-0.0095346 -0.0005801 0.0
-0.0089728 -0.0005871 0.0
-0.0084052 -0.0005922 0.0
-0.0078337 -0.0005954 0.0
-0.0072598 -0.0005967 0.0
-0.0066855 -0.0005962 0.0
-0.0061126 -0.0005937 0.0
-0.0055427 -0.0005894 0.0
-0.0049776 -0.0005832 0.0
-0.0044192 -0.0005751 0.0
-0.0038691 -0.0005653 0.0
-0.0033288 -0.0005538 0.0
-0.0028002 -0.0005406 0.0
-0.0022846 -0.0005257 0.0
-0.0017836 -0.0005094 0.0
-0.0012986 -0.0004916 0.0
-0.0008309 -0.0004725 0.0
-0.0003817 -0.0004521 0.0
0.0000478 -0.0004306 0.0
0.0004565 -0.0004080 0.0
0.0008436 -0.0003845 0.0
0.0012082 -0.0003602 0.0
0.0015495 -0.0003352 0.0
0.0018670 -0.0003097 0.0
0.0021600 -0.0002836 0.0
0.0024283 -0.0002573 0.0
0.0026715 -0.0002307 0.0
0.0028894 -0.0002040 0.0
0.0030819 -0.0001773 0.0
0.0032491 -0.0001508 0.0
0.0033911 -0.0001244 0.0
0.0035081 -0.0000984 0.0
0.0036005 -0.0000728 0.0
0.0036686 -0.0000477 0.0
0.0037129 -0.0000232 0.0
0.0037341 0.0000006 0.0
0.0037328 0.0000237 0.0
0.0037098 0.0000459 0.0
0.0036658 0.0000672 0.0
0.0036017 0.0000876 0.0
0.0035186 0.0001068 0.0
0.0034174 0.0001250 0.0
0.0032992 0.0001420 0.0
0.0031652 0.0001577 0.0
0.0030167 0.0001720 0.0
0.0028550 0.0001849 0.0
0.0026816 0.0001963 0.0
0.0024979 0.0002060 0.0
0.0023057 0.0002139 0.0
0.0021066 0.0002200 0.0
0.0019026 0.0002239 0.0
0.0016959 0.0002255 0.0
0.0014886 0.0002245 0.0
0.0012832 0.0002208 0.0
0.0010825 0.0002140 0.0
0.0008893 0.0002038 0.0
0.0007069 0.0001898 0.0
0.0005386 0.0001718 0.0
0.0003879 0.0001494 0.0
0.0002585 0.0001227 0.0
0.0001536 0.0000920 0.0
0.0000758 0.0000588 0.0
0.0000263 0.0000262 0.0
0.0000031 0.0000017 0.0
0.0000000 0.0000000 0.0
0.0000000 0.0000000 0.0
0.0000144 -0.0000383 0.0
0.0000492 -0.0000726 0.0
0.0000982 -0.0000979 0.0
0.0001560 -0.0001131 0.0
0.0002175 -0.0001189 0.0
0.0002785 -0.0001167 0.0
0.0003351 -0.0001079 0.0
0.0003842 -0.0000941 0.0
0.0004232 -0.0000763 0.0
0.0004503 -0.0000556 0.0
0.0004638 -0.0000328 0.0
0.0004628 -0.0000086 0.0
0.0004464 0.0000166 0.0
0.0004142 0.0000422 0.0
0.0003659 0.0000679 0.0
0.0003015 0.0000935 0.0
0.0002210 0.0001189 0.0
0.0001245 0.0001439 0.0
0.0000123 0.0001683 0.0
-0.0001153 0.0001922 0.0
-0.0002581 0.0002156 0.0
-0.0004157 0.0002383 0.0
-0.0005879 0.0002606 0.0
-0.0007743 0.0002823 0.0
-0.0009746 0.0003035 0.0
-0.0011886 0.0003243 0.0
-0.0014160 0.0003447 0.0
-0.0016566 0.0003647 0.0
-0.0019102 0.0003845 0.0
-0.0021766 0.0004040 0.0
-0.0024558 0.0004234 0.0
-0.0027474 0.0004425 0.0
-0.0030515 0.0004615 0.0
-0.0033680 0.0004803 0.0
-0.0036966 0.0004991 0.0
-0.0040374 0.0005177 0.0
-0.0043903 0.0005363 0.0
-0.0047551 0.0005547 0.0
-0.0051317 0.0005730 0.0
-0.0055201 0.0005912 0.0
-0.0059201 0.0006092 0.0
-0.0063315 0.0006270 0.0
-0.0067541 0.0006445 0.0
-0.0071878 0.0006618 0.0
-0.0076323 0.0006787 0.0
-0.0080873 0.0006952 0.0
-0.0085526 0.0007113 0.0
-0.0090277 0.0007269 0.0
-0.0095122 0.0007418 0.0
-0.0100058 0.0007562 0.0
-0.0105079 0.0007697 0.0
-0.0110180 0.0007825 0.0
-0.0115355 0.0007944 0.0
-0.0120597 0.0008053 0.0
-0.0125900 0.0008151 0.0
-0.0131257 0.0008238 0.0
-0.0136659 0.0008313 0.0
-0.0142097 0.0008375 0.0
-0.0147564 0.0008422 0.0
-0.0153048 0.0008455 0.0
-0.0158541 0.0008473 0.0
-0.0164031 0.0008473 0.0
-0.0169508 0.0008457 0.0
-0.0174960 0.0008423 0.0
-0.0180375 0.0008369 0.0
-0.0185741 0.0008297 0.0
-0.0191044 0.0008204 0.0
-0.0196273 0.0008090 0.0
-0.0201412 0.0007956 0.0
-0.0206449 0.0007799 0.0
-0.0211369 0.0007620 0.0
-0.0216159 0.0007418 0.0
-0.0220803 0.0007194 0.0
-0.0225287 0.0006946 0.0
-0.0229597 0.0006675 0.0
-0.0233718 0.0006381 0.0
-0.0237636 0.0006063 0.0
-0.0241335 0.0005723 0.0
-0.0244802 0.0005359 0.0
-0.0248024 0.0004973 0.0
-0.0250985 0.0004565 0.0
-0.0253673 0.0004135 0.0
-0.0256074 0.0003685 0.0
-0.0258178 0.0003214 0.0
-0.0259970 0.0002724 0.0
-0.0261442 0.0002217 0.0
-0.0262582 0.0001692 0.0
-0.0263380 0.0001152 0.0
-0.0263827 0.0000597 0.0
-0.0263917 0.0000030 0.0
-0.0263642 -0.0000548 0.0
-0.0262995 -0.0001136 0.0
-0.0261973 -0.0001732 0.0
-0.0260572 -0.0002333 0.0
-0.0258789 -0.0002938 0.0
-0.0256624 -0.0003545 0.0
-0.0254076 -0.0004152 0.0
-0.0251147 -0.0004756 0.0
-0.0247839 -0.0005356 0.0
-0.0244157 -0.0005948 0.0
-0.0240107 -0.0006531 0.0
-0.0235695 -0.0007103 0.0
-0.0230930 -0.0007660 0.0
-0.0225822 -0.0008201 0.0
-0.0220381 -0.0008724 0.0
-0.0214621 -0.0009226 0.0
-0.0208554 -0.0009705 0.0
-0.0202196 -0.0010160 0.0
-0.0195564 -0.0010587 0.0
-0.0188675 -0.0010984 0.0
-0.0181547 -0.0011352 0.0
-0.0174201 -0.0011686 0.0
-0.0166657 -0.0011986 0.0
-0.0158937 -0.0012251 0.0
-0.0151063 -0.0012479 0.0
-0.0143058 -0.0012669 0.0
-0.0134946 -0.0012820 0.0
-0.0126752 -0.0012931 0.0
-0.0118499 -0.0013002 0.0
-0.0110213 -0.0013032 0.0
-0.0101919 -0.0013022 0.0
-0.0093642 -0.0012971 0.0
-0.0085407 -0.0012880 0.0
-0.0077238 -0.0012749 0.0
-0.0069160 -0.0012578 0.0
-0.0061197 -0.0012370 0.0
-0.0053373 -0.0012124 0.0
-0.0045710 -0.0011842 0.0
-0.0038230 -0.0011526 0.0
-0.0030953 -0.0011176 0.0
-0.0023901 -0.0010796 0.0
-0.0017091 -0.0010387 0.0
-0.0010542 -0.0009950 0.0
-0.0004270 -0.0009489 0.0
0.0001710 -0.0009005 0.0
0.0007385 -0.0008501 0.0
0.0012742 -0.0007979 0.0
0.0017771 -0.0007441 0.0
0.0022461 -0.0006891 0.0
0.0026806 -0.0006330 0.0
0.0030799 -0.0005762 0.0
0.0034436 -0.0005188 0.0
0.0037713 -0.0004611 0.0
0.0040629 -0.0004034 0.0
0.0043184 -0.0003459 0.0
0.0045379 -0.0002888 0.0
0.0047216 -0.0002323 0.0
0.0048700 -0.0001767 0.0
0.0049837 -0.0001222 0.0
0.0050633 -0.0000689 0.0
0.0051096 -0.0000170 0.0
0.0051234 0.0000333 0.0
0.0051060 0.0000818 0.0
0.0050583 0.0001283 0.0
0.0049816 0.0001727 0.0
0.0048773 0.0002149 0.0
0.0047469 0.0002546 0.0
0.0045918 0.0002918 0.0
0.0044139 0.0003261 0.0
0.0042149 0.0003576 0.0
0.0039967 0.0003859 0.0
0.0037614 0.0004108 0.0
0.0035111 0.0004322 0.0
0.0032483 0.0004496 0.0
0.0029755 0.0004629 0.0
0.0026953 0.0004716 0.0
0.0024108 0.0004753 0.0
0.0021252 0.0004736 0.0
0.0018417 0.0004661 0.0
0.0015642 0.0004520 0.0
0.0012967 0.0004309 0.0
0.0010432 0.0004022 0.0
0.0008082 0.0003654 0.0
0.0005963 0.0003202 0.0
0.0004118 0.0002667 0.0
0.0002589 0.0002059 0.0
0.0001406 0.0001405 0.0
0.0000589 0.0000758 0.0
0.0000131 0.0000226 0.0
0.0000000 0.0000000 0.0
0.0000000 0.0000000 0.0
0.0000174 -0.0000658 0.0
0.0000581 -0.0001186 0.0
0.0001137 -0.0001557 0.0
0.0001775 -0.0001769 0.0
0.0002439 -0.0001838 0.0
0.0003079 -0.0001782 0.0
0.0003654 -0.0001624 0.0
0.0004126 -0.0001384 0.0
0.0004468 -0.0001080 0.0
0.0004657 -0.0000727 0.0
0.0004673 -0.0000339 0.0
0.0004505 0.0000074 0.0
0.0004142 0.0000502 0.0
0.0003579 0.0000940 0.0
0.0002812 0.0001381 0.0
0.0001838 0.0001822 0.0
0.0000659 0.0002259 0.0
-0.0000724 0.0002691 0.0
-0.0002309 0.0003114 0.0
-0.0004094 0.0003529 0.0
-0.0006074 0.0003935 0.0
-0.0008247 0.0004332 0.0
-0.0010607 0.0004720 0.0
-0.0013153 0.0005100 0.0
-0.0015881 0.0005472 0.0
-0.0018787 0.0005836 0.0
-0.0021869 0.0006195 0.0
-0.0025123 0.0006547 0.0
-0.0028547 0.0006894 0.0
-0.0032139 0.0007237 0.0
-0.0035898 0.0007576 0.0
-0.0039820 0.0007912 0.0
-0.0043905 0.0008245 0.0
-0.0048152 0.0008576 0.0
-0.0052558 0.0008904 0.0
-0.0057122 0.0009230 0.0
-0.0061843 0.0009554 0.0
-0.0066719 0.0009876 0.0
-0.0071749 0.0010195 0.0
-0.0076931 0.0010511 0.0
-0.0082262 0.0010823 0.0
-0.0087740 0.0011131 0.0
-0.0093363 0.0011435 0.0
-0.0099126 0.0011732 0.0
-0.0105028 0.0012024 0.0
-0.0111064 0.0012307 0.0
-0.0117228 0.0012582 0.0
-0.0123517 0.0012848 0.0
-0.0129925 0.0013102 0.0
-0.0136444 0.0013345 0.0
-0.0143070 0.0013574 0.0
-0.0149794 0.0013788 0.0
-0.0156608 0.0013986 0.0
-0.0163503 0.0014166 0.0
-0.0170470 0.0014328 0.0
-0.0177500 0.0014469 0.0
-0.0184581 0.0014588 0.0
-0.0191702 0.0014684 0.0
-0.0198851 0.0014755 0.0
-0.0206015 0.0014800 0.0
-0.0213182 0.0014817 0.0
-0.0220336 0.0014806 0.0
-0.0227464 0.0014763 0.0
-0.0234550 0.0014690 0.0
-0.0241579 0.0014583 0.0
-0.0248535 0.0014443 0.0
-0.0255401 0.0014267 0.0
-0.0262160 0.0014055 0.0
-0.0268795 0.0013807 0.0
-0.0275287 0.0013520 0.0
-0.0281619 0.0013195 0.0
-0.0287773 0.0012831 0.0
-0.0293730 0.0012427 0.0
-0.0299472 0.0011984 0.0
-0.0304980 0.0011501 0.0
-0.0310236 0.0010978 0.0
-0.0315221 0.0010415 0.0
-0.0319917 0.0009812 0.0
-0.0324307 0.0009171 0.0
-0.0328373 0.0008491 0.0