# vtk DataFile Version 3.0
Cell-Centered Data as Point Data
ASCII
DATASET STRUCTURED_GRID
DIMENSIONS 13 13 1
POINTS 169 float
-0.045455 1.045455 0.0
0.045455 1.045455 0.0
0.136364 1.045455 0.0
0.227273 1.045455 0.0
0.318182 1.045455 0.0
0.409091 1.045455 0.0
0.500000 1.045455 0.0
0.590909 1.045455 0.0
0.681818 1.045455 0.0
0.772727 1.045455 0.0
0.863636 1.045455 0.0
0.954545 1.045455 0.0
1.045455 1.045455 0.0
-0.045455 0.954545 0.0
0.045455 0.954545 0.0
0.136364 0.954545 0.0
0.227273 0.954545 0.0
0.318182 0.954545 0.0
0.409091 0.954545 0.0
0.500000 0.954545 0.0
0.590909 0.954545 0.0
0.681818 0.954545 0.0
0.772727 0.954545 0.0
0.863636 0.954545 0.0
0.954545 0.954545 0.0
1.045455 0.954545 0.0
-0.045455 0.863636 0.0
0.045455 0.863636 0.0
0.136364 0.863636 0.0
0.227273 0.863636 0.0
0.318182 0.863636 0.0
0.409091 0.863636 0.0
0.500000 0.863636 0.0
0.590909 0.863636 0.0
0.681818 0.863636 0.0
0.772727 0.863636 0.0
0.863636 0.863636 0.0
0.954545 0.863636 0.0
1.045455 0.863636 0.0
-0.045455 0.772727 0.0
0.045455 0.772727 0.0
0.136364 0.772727 0.0
0.227273 0.772727 0.0
0.318182 0.772727 0.0
0.409091 0.772727 0.0
0.500000 0.772727 0.0
0.590909 0.772727 0.0
0.681818 0.772727 0.0
0.772727 0.772727 0.0
0.863636 0.772727 0.0
0.954545 0.772727 0.0
1.045455 0.772727 0.0
-0.045455 0.681818 0.0
0.045455 0.681818 0.0
0.136364 0.681818 0.0
0.227273 0.681818 0.0
0.318182 0.681818 0.0
0.409091 0.681818 0.0
0.500000 0.681818 0.0
0.590909 0.681818 0.0
0.681818 0.681818 0.0
0.772727 0.681818 0.0
0.863636 0.681818 0.0
0.954545 0.681818 0.0
1.045455 0.681818 0.0
-0.045455 0.590909 0.0
0.045455 0.590909 0.0
0.136364 0.590909 0.0
0.227273 0.590909 0.0
0.318182 0.590909 0.0
0.409091 0.590909 0.0
0.500000 0.590909 0.0
0.590909 0.590909 0.0
0.681818 0.590909 0.0
0.772727 0.590909 0.0
0.863636 0.590909 0.0
0.954545 0.590909 0.0
1.045455 0.590909 0.0
-0.045455 0.500000 0.0
0.045455 0.500000 0.0
0.136364 0.500000 0.0
0.227273 0.500000 0.0
0.318182 0.500000 0.0
0.409091 0.500000 0.0
0.500000 0.500000 0.0
0.590909 0.500000 0.0
0.681818 0.500000 0.0
0.772727 0.500000 0.0
0.863636 0.500000 0.0
0.954545 0.500000 0.0
1.045455 0.500000 0.0
-0.045455 0.409091 0.0
0.045455 0.409091 0.0
0.136364 0.409091 0.0
0.227273 0.409091 0.0
0.318182 0.409091 0.0
0.409091 0.409091 0.0
0.500000 0.409091 0.0
0.590909 0.409091 0.0
0.681818 0.409091 0.0
0.772727 0.409091 0.0
0.863636 0.409091 0.0
0.954545 0.409091 0.0
1.045455 0.409091 0.0
-0.045455 0.318182 0.0
0.045455 0.318182 0.0
0.136364 0.318182 0.0
0.227273 0.318182 0.0
0.318182 0.318182 0.0
0.409091 0.318182 0.0
0.500000 0.318182 0.0
0.590909 0.318182 0.0
0.681818 0.318182 0.0
0.772727 0.318182 0.0
0.863636 0.318182 0.0
0.954545 0.318182 0.0
1.045455 0.318182 0.0
-0.045455 0.227273 0.0
0.045455 0.227273 0.0
0.136364 0.227273 0.0
0.227273 0.227273 0.0
0.318182 0.227273 0.0
0.409091 0.227273 0.0
0.500000 0.227273 0.0
0.590909 0.227273 0.0
0.681818 0.227273 0.0
0.772727 0.227273 0.0
0.863636 0.227273 0.0
0.954545 0.227273 0.0
1.045455 0.227273 0.0
-0.045455 0.136364 0.0
0.045455 0.136364 0.0
0.136364 0.136364 0.0
0.227273 0.136364 0.0
0.318182 0.136364 0.0
0.409091 0.136364 0.0
0.500000 0.136364 0.0
0.590909 0.136364 0.0
0.681818 0.136364 0.0
0.772727 0.136364 0.0
0.863636 0.136364 0.0
0.954545 0.136364 0.0
1.045455 0.136364 0.0
-0.045455 0.045455 0.0
0.045455 0.045455 0.0
0.136364 0.045455 0.0
0.227273 0.045455 0.0
0.318182 0.045455 0.0
0.409091 0.045455 0.0
0.500000 0.045455 0.0
0.590909 0.045455 0.0
0.681818 0.045455 0.0
0.772727 0.045455 0.0
0.863636 0.045455 0.0
0.954545 0.045455 0.0
1.045455 0.045455 0.0
-0.045455 -0.045455 0.0
0.045455 -0.045455 0.0
0.136364 -0.045455 0.0
0.227273 -0.045455 0.0
0.318182 -0.045455 0.0
0.409091 -0.045455 0.0
0.500000 -0.045455 0.0
0.590909 -0.045455 0.0
0.681818 -0.045455 0.0
0.772727 -0.045455 0.0
0.863636 -0.045455 0.0
0.954545 -0.045455 0.0
1.045455 -0.045455 0.0
POINT_DATA 169
SCALARS pressure float 1
LOOKUP_TABLE default
-0.005430
-0.005430
0.014333
0.012446
0.007156
0.000969
-0.007859
-0.004547
-0.004586
0.020231
0.043315
0.126896
0.126896
-0.005430
-0.005430
0.014333
0.012446
0.007156
0.000969
-0.007859
-0.004547
-0.004586
0.020231
0.043315
0.126896
0.126896
0.005610
0.005610
0.005174
0.008627
-0.001349
-0.004776
-0.016076
-0.013253
-0.018710
-0.003612
-0.002183
0.044301
0.044301
0.001028
0.001028
0.003889
0.002025
-0.004177
-0.008689
-0.016059
-0.012157
-0.014403
-0.001122
-0.003246
0.024508
0.024508
0.002653
0.002653
0.000392
-0.002972
-0.014703
-0.018333
-0.028114
-0.024052
-0.028064
-0.016296
-0.019658
-0.004211
-0.004211
0.002478
0.002478
0.000303
-0.004994
-0.014985
-0.018968
-0.026395
-0.022643
-0.025497
-0.015071
-0.016364
-0.005294
-0.005294
0.003664
0.003664
0.000216
-0.005339
-0.017890
-0.021772
-0.030449
-0.026712
-0.030259
-0.021105
-0.020826
-0.012118
-0.012118
0.007707
0.007707
0.004086
-0.001899
-0.013679
-0.018057
-0.025657
-0.022083
-0.024042
-0.014684
-0.011389
-0.002917
-0.002917
0.011034
0.011034
0.007638
0.003049
-0.008698
-0.012977
-0.021497
-0.018323
-0.020010
-0.010209
-0.004657
0.004021
0.004021
0.014117
0.014117
0.011029
0.007816
-0.001506
-0.005319
-0.012890
-0.009532
-0.009181
0.002167
0.010451
0.019673
0.019673
0.012522
0.012522
0.010729
0.010314
0.005398
0.004394
-0.002675
0.000438
0.001200
0.012750
0.021595
0.030588
0.030588
0.011700
0.011700
0.010119
0.010541
0.008469
0.008779
0.002961
0.006160
0.007934
0.019942
0.029482
0.038706
0.038706
0.011700
0.011700
0.010119
0.010541
0.008469
0.008779
0.002961
0.006160
0.007934
0.019942
0.029482
0.038706
0.038706
VECTORS velocity float
0.904662 -0.117684 0.0
1.904662 -0.117684 0.0
1.915183 -0.035718 0.0
1.790230 -0.051039 0.0
1.762149 -0.032941 0.0
1.665422 -0.030958 0.0
1.660007 -0.019731 0.0
1.596937 -0.009929 0.0
1.624263 0.002680 0.0
1.599059 0.026576 0.0
1.687209 0.064817 0.0
1.806801 0.158516 0.0
0.806801 0.158516 0.0
-0.095338 -0.117684 0.0
0.095338 0.117684 0.0
0.084817 0.035718 0.0
0.209770 0.051039 0.0
0.237851 0.032941 0.0
0.334578 0.030958 0.0
0.339993 0.019731 0.0
0.403063 0.009929 0.0
0.375737 -0.002680 0.0
0.400941 -0.026576 0.0
0.312791 -0.064817 0.0
0.193199 -0.158516 0.0
-0.193199 0.158516 0.0
0.052377 -0.062096 0.0
-0.052377 0.062096 0.0
-0.015282 0.079136 0.0
0.056340 0.101915 0.0
0.089031 0.091921 0.0
0.159324 0.071317 0.0
0.152444 0.048678 0.0
0.194552 0.026157 0.0
0.152915 0.000436 0.0
0.174429 -0.035606 0.0
0.122914 -0.143565 0.0
0.091600 -0.345882 0.0
-0.091600 0.345882 0.0
-0.014526 -0.050316 0.0
0.014526 0.050316 0.0
0.029728 0.144167 0.0
0.099631 0.155575 0.0
0.110558 0.135585 0.0
0.156607 0.094488 0.0
0.139325 0.054512 0.0
0.155957 0.010455 0.0
0.104976 -0.023529 0.0
0.092591 -0.056584 0.0
0.020904 -0.149296 0.0
0.036325 -0.373720 0.0
-0.036325 0.373720 0.0
-0.026670 -0.106143 0.0
0.026670 0.106143 0.0
0.033203 0.164372 0.0
0.069704 0.182759 0.0
0.072977 0.149011 0.0
0.099949 0.100310 0.0
0.085589 0.048108 0.0
0.101598 -0.007708 0.0
0.072243 -0.062831 0.0
0.069481 -0.118829 0.0
0.001856 -0.199875 0.0
0.011742 -0.402199 0.0
-0.011742 0.402199 0.0
-0.013453 -0.110257 0.0
0.013453 0.110257 0.0
0.009600 0.187105 0.0
0.032493 0.195464 0.0
0.024047 0.165491 0.0
0.042412 0.107147 0.0
0.023266 0.055681 0.0
0.034124 -0.002888 0.0
0.010061 -0.056265 0.0
0.023018 -0.126932 0.0
-0.021747 -0.207754 0.0
-0.004811 -0.387514 0.0
0.004811 0.387514 0.0
-0.010607 -0.129182 0.0
0.010607 0.129182 0.0
-0.009670 0.183449 0.0
-0.004780 0.197292 0.0
-0.017077 0.158944 0.0
-0.004706 0.099771 0.0
-0.016716 0.039829 0.0
-0.005631 -0.020524 0.0
-0.021712 -0.073954 0.0
-0.009985 -0.150129 0.0
-0.036239 -0.227695 0.0
-0.016243 -0.375208 0.0
0.016243 0.375208 0.0
0.005336 -0.111173 0.0
-0.005336 0.111173 0.0
-0.042026 0.171639 0.0
-0.056610 0.188145 0.0
-0.077979 0.165317 0.0
-0.069871 0.107601 0.0
-0.080645 0.054420 0.0
-0.063788 -0.007796 0.0
-0.071225 -0.061020 0.0
-0.053552 -0.141433 0.0
-0.059163 -0.214412 0.0
-0.026131 -0.335158 0.0
0.026131 0.335158 0.0
0.010525 -0.081850 0.0
-0.010525 0.081850 0.0
-0.061988 0.132174 0.0
-0.090172 0.161433 0.0
-0.119913 0.145594 0.0
-0.118214 0.097278 0.0
-0.128357 0.045821 0.0
-0.115148 -0.010835 0.0
-0.116037 -0.063784 0.0
-0.096783 -0.137777 0.0
-0.082114 -0.200259 0.0
-0.036175 -0.289677 0.0
0.036175 0.289677 0.0
0.016299 -0.038645 0.0
-0.016299 0.038645 0.0
-0.076148 0.091926 0.0
-0.125286 0.130331 0.0
-0.170226 0.137108 0.0
-0.181266 0.099300 0.0
-0.195048 0.057264 0.0
-0.184014 0.004651 0.0
-0.177010 -0.042921 0.0
-0.147542 -0.107491 0.0
-0.109382 -0.154039 0.0
-0.044904 -0.216938 0.0
0.044904 0.216938 0.0
0.002420 0.010526 0.0
-0.002420 -0.010526 0.0
-0.045303 0.023176 0.0
-0.097779 0.067463 0.0
-0.165170 0.089494 0.0
-0.199457 0.072550 0.0
-0.227262 0.042897 0.0
-0.228985 0.007348 0.0
-0.218036 -0.027444 0.0
-0.184041 -0.070005 0.0
-0.124991 -0.097627 0.0
-0.053303 -0.135250 0.0
0.053303 0.135250 0.0
-0.012089 0.009089 0.0
0.012089 -0.009089 0.0
0.007507 -0.003496 0.0
-0.007541 0.010554 0.0
-0.070550 0.035352 0.0
-0.132309 0.037398 0.0
-0.180623 0.027606 0.0
-0.202678 0.014040 0.0
-0.202141 0.001877 0.0
-0.176993 -0.014367 0.0
-0.117871 -0.023396 0.0
-0.055934 -0.038633 0.0
0.055934 0.038633 0.0
-0.012089 0.009089 0.0
-0.012089 0.009089 0.0
-0.007507 0.003496 0.0
0.007541 -0.010554 0.0
0.070550 -0.035352 0.0
0.132309 -0.037398 0.0
0.180623 -0.027606 0.0
0.202678 -0.014040 0.0
0.202141 -0.001877 0.0
0.176993 0.014367 0.0
0.117871 0.023396 0.0
0.055934 0.038633 0.0
0.055934 0.038633 0.0
