# vtk DataFile Version 2.0
Lid Driven Cavity Flow
ASCII
DATASET STRUCTURED_GRID
DIMENSIONS 181 181 1
POINTS 32761 float
0.0000000 0.0000000 0.0
0.0055556 0.0000000 0.0
0.0111111 0.0000000 0.0
0.0166667 0.0000000 0.0
0.0222222 0.0000000 0.0
0.0277778 0.0000000 0.0
0.0333333 0.0000000 0.0
0.0388889 0.0000000 0.0
0.0444444 0.0000000 0.0
0.0500000 0.0000000 0.0
0.0555556 0.0000000 0.0
0.0611111 0.0000000 0.0
0.0666667 0.0000000 0.0
0.0722222 0.0000000 0.0
0.0777778 0.0000000 0.0
0.0833333 0.0000000 0.0
0.0888889 0.0000000 0.0
0.0944444 0.0000000 0.0
0.1000000 0.0000000 0.0
0.1055556 0.0000000 0.0
0.1111111 0.0000000 0.0
0.1166667 0.0000000 0.0
0.1222222 0.0000000 0.0
0.1277778 0.0000000 0.0
0.1333333 0.0000000 0.0
0.1388889 0.0000000 0.0
0.1444444 0.0000000 0.0
0.1500000 0.0000000 0.0
0.1555556 0.0000000 0.0
0.1611111 0.0000000 0.0
0.1666667 0.0000000 0.0
0.1722222 0.0000000 0.0
0.1777778 0.0000000 0.0
0.1833333 0.0000000 0.0
0.1888889 0.0000000 0.0
0.1944444 0.0000000 0.0
0.2000000 0.0000000 0.0
0.2055556 0.0000000 0.0
0.2111111 0.0000000 0.0
0.2166667 0.0000000 0.0
0.2222222 0.0000000 0.0
0.2277778 0.0000000 0.0
0.2333333 0.0000000 0.0
0.2388889 0.0000000 0.0
0.2444444 0.0000000 0.0
0.2500000 0.0000000 0.0
0.2555556 0.0000000 0.0
0.2611111 0.0000000 0.0
0.2666667 0.0000000 0.0
0.2722222 0.0000000 0.0
0.2777778 0.0000000 0.0
0.2833333 0.0000000 0.0
0.2888889 0.0000000 0.0
0.2944444 0.0000000 0.0
0.3000000 0.0000000 0.0
0.3055556 0.0000000 0.0
0.3111111 0.0000000 0.0
0.3166667 0.0000000 0.0
0.3222222 0.0000000 0.0
0.3277778 0.0000000 0.0
0.3333333 0.0000000 0.0
0.3388889 0.0000000 0.0
0.3444444 0.0000000 0.0
0.3500000 0.0000000 0.0
0.3555556 0.0000000 0.0
0.3611111 0.0000000 0.0
0.3666667 0.0000000 0.0
0.3722222 0.0000000 0.0
0.3777778 0.0000000 0.0
0.3833333 0.0000000 0.0
0.3888889 0.0000000 0.0
0.3944444 0.0000000 0.0
0.4000000 0.0000000 0.0
0.4055556 0.0000000 0.0
0.4111111 0.0000000 0.0
0.4166667 0.0000000 0.0
0.4222222 0.0000000 0.0
0.4277778 0.0000000 0.0
0.4333333 0.0000000 0.0
0.4388889 0.0000000 0.0
0.4444444 0.0000000 0.0
0.4500000 0.0000000 0.0
0.4555556 0.0000000 0.0
0.4611111 0.0000000 0.0
0.4666667 0.0000000 0.0
0.4722222 0.0000000 0.0
0.4777778 0.0000000 0.0
0.4833333 0.0000000 0.0
0.4888889 0.0000000 0.0
0.4944444 0.0000000 0.0
0.5000000 0.0000000 0.0
0.5055556 0.0000000 0.0
0.5111111 0.0000000 0.0
0.5166667 0.0000000 0.0
0.5222222 0.0000000 0.0
0.5277778 0.0000000 0.0
0.5333333 0.0000000 0.0
0.5388889 0.0000000 0.0
0.5444444 0.0000000 0.0
0.5500000 0.0000000 0.0
0.5555556 0.0000000 0.0
0.5611111 0.0000000 0.0
0.5666667 0.0000000 0.0
0.5722222 0.0000000 0.0
0.5777778 0.0000000 0.0
0.5833333 0.0000000 0.0
0.5888889 0.0000000 0.0
0.5944444 0.0000000 0.0
0.6000000 0.0000000 0.0
0.6055556 0.0000000 0.0
0.6111111 0.0000000 0.0
0.6166667 0.0000000 0.0
0.6222222 0.0000000 0.0
0.6277778 0.0000000 0.0
0.6333333 0.0000000 0.0
0.6388889 0.0000000 0.0
0.6444444 0.0000000 0.0
0.6500000 0.0000000 0.0
0.6555556 0.0000000 0.0
0.6611111 0.0000000 0.0
0.6666667 0.0000000 0.0
0.6722222 0.0000000 0.0
0.6777778 0.0000000 0.0
0.6833333 0.0000000 0.0
0.6888889 0.0000000 0.0
0.6944444 0.0000000 0.0
0.7000000 0.0000000 0.0
0.7055556 0.0000000 0.0
0.7111111 0.0000000 0.0
0.7166667 0.0000000 0.0
0.7222222 0.0000000 0.0
0.7277778 0.0000000 0.0
0.7333333 0.0000000 0.0
0.7388889 0.0000000 0.0
0.7444444 0.0000000 0.0
0.7500000 0.0000000 0.0
0.7555556 0.0000000 0.0
0.7611111 0.0000000 0.0
0.7666667 0.0000000 0.0
0.7722222 0.0000000 0.0
0.7777778 0.0000000 0.0
0.7833333 0.0000000 0.0
0.7888889 0.0000000 0.0
0.7944444 0.0000000 0.0
0.8000000 0.0000000 0.0
0.8055556 0.0000000 0.0
0.8111111 0.0000000 0.0
0.8166667 0.0000000 0.0
0.8222222 0.0000000 0.0
0.8277778 0.0000000 0.0
0.8333333 0.0000000 0.0
0.8388889 0.0000000 0.0
0.8444444 0.0000000 0.0
0.8500000 0.0000000 0.0
0.8555556 0.0000000 0.0
0.8611111 0.0000000 0.0
0.8666667 0.0000000 0.0
0.8722222 0.0000000 0.0
0.8777778 0.0000000 0.0
0.8833333 0.0000000 0.0
0.8888889 0.0000000 0.0
0.8944444 0.0000000 0.0
0.9000000 0.0000000 0.0
0.9055556 0.0000000 0.0
0.9111111 0.0000000 0.0
0.9166667 0.0000000 0.0
0.9222222 0.0000000 0.0
0.9277778 0.0000000 0.0
0.9333333 0.0000000 0.0
0.9388889 0.0000000 0.0
0.9444444 0.0000000 0.0
0.9500000 0.0000000 0.0
0.9555556 0.0000000 0.0
0.9611111 0.0000000 0.0
0.9666667 0.0000000 0.0
0.9722222 0.0000000 0.0
0.9777778 0.0000000 0.0
0.9833333 0.0000000 0.0
0.9888889 0.0000000 0.0
0.9944444 0.0000000 0.0
1.0000000 0.0000000 0.0
0.0000000 0.0055556 0.0
0.0055556 0.0055556 0.0
0.0111111 0.0055556 0.0
0.0166667 0.0055556 0.0
0.0222222 0.0055556 0.0
0.0277778 0.0055556 0.0
0.0333333 0.0055556 0.0
0.0388889 0.0055556 0.0
0.0444444 0.0055556 0.0
0.0500000 0.0055556 0.0
0.0555556 0.0055556 0.0
0.0611111 0.0055556 0.0
0.0666667 0.0055556 0.0
0.0722222 0.0055556 0.0
0.0777778 0.0055556 0.0
0.0833333 0.0055556 0.0
0.0888889 0.0055556 0.0
0.0944444 0.0055556 0.0
0.1000000 0.0055556 0.0
0.1055556 0.0055556 0.0
0.1111111 0.0055556 0.0
0.1166667 0.0055556 0.0
0.1222222 0.0055556 0.0
0.1277778 0.0055556 0.0
0.1333333 0.0055556 0.0
0.1388889 0.0055556 0.0
0.1444444 0.0055556 0.0
0.1500000 0.0055556 0.0
0.1555556 0.0055556 0.0
0.1611111 0.0055556 0.0
0.1666667 0.0055556 0.0
0.1722222 0.0055556 0.0
0.1777778 0.0055556 0.0
0.1833333 0.0055556 0.0
0.1888889 0.0055556 0.0
0.1944444 0.0055556 0.0
0.2000000 0.0055556 0.0
0.2055556 0.0055556 0.0
0.2111111 0.0055556 0.0
0.2166667 0.0055556 0.0
0.2222222 0.0055556 0.0
0.2277778 0.0055556 0.0
0.2333333 0.0055556 0.0
0.2388889 0.0055556 0.0
0.2444444 0.0055556 0.0
0.2500000 0.0055556 0.0
0.2555556 0.0055556 0.0
0.2611111 0.0055556 0.0
0.2666667 0.0055556 0.0
0.2722222 0.0055556 0.0
0.2777778 0.0055556 0.0
0.2833333 0.0055556 0.0
0.2888889 0.0055556 0.0
0.2944444 0.0055556 0.0
0.3000000 0.0055556 0.0
0.3055556 0.0055556 0.0
0.3111111 0.0055556 0.0
0.3166667 0.0055556 0.0
0.3222222 0.0055556 0.0
0.3277778 0.0055556 0.0
0.3333333 0.0055556 0.0
0.3388889 0.0055556 0.0
0.3444444 0.0055556 0.0
0.3500000 0.0055556 0.0
0.3555556 0.0055556 0.0
0.3611111 0.0055556 0.0
0.3666667 0.0055556 0.0
0.3722222 0.0055556 0.0
0.3777778 0.0055556 0.0
0.3833333 0.0055556 0.0
0.3888889 0.0055556 0.0
0.3944444 0.0055556 0.0
0.4000000 0.0055556 0.0
0.4055556 0.0055556 0.0
0.4111111 0.0055556 0.0
0.4166667 0.0055556 0.0
0.4222222 0.0055556 0.0
0.4277778 0.0055556 0.0
0.4333333 0.0055556 0.0
0.4388889 0.0055556 0.0
0.4444444 0.0055556 0.0
0.4500000 0.0055556 0.0
0.4555556 0.0055556 0.0
0.4611111 0.0055556 0.0
0.4666667 0.0055556 0.0
0.4722222 0.0055556 0.0
0.4777778 0.0055556 0.0
0.4833333 0.0055556 0.0
0.4888889 0.0055556 0.0
0.4944444 0.0055556 0.0
0.5000000 0.0055556 0.0
0.5055556 0.0055556 0.0
0.5111111 0.0055556 0.0
0.5166667 0.0055556 0.0
0.5222222 0.0055556 0.0
0.5277778 0.0055556 0.0
0.5333333 0.0055556 0.0
0.5388889 0.0055556 0.0
0.5444444 0.0055556 0.0
0.5500000 0.0055556 0.0
0.5555556 0.0055556 0.0
0.5611111 0.0055556 0.0
0.5666667 0.0055556 0.0
0.5722222 0.0055556 0.0
0.5777778 0.0055556 0.0
0.5833333 0.0055556 0.0
0.5888889 0.0055556 0.0
0.5944444 0.0055556 0.0
0.6000000 0.0055556 0.0
0.6055556 0.0055556 0.0
0.6111111 0.0055556 0.0
0.6166667 0.0055556 0.0
0.6222222 0.0055556 0.0
0.6277778 0.0055556 0.0
0.6333333 0.0055556 0.0
0.6388889 0.0055556 0.0
0.6444444 0.0055556 0.0
0.6500000 0.0055556 0.0
0.6555556 0.0055556 0.0
0.6611111 0.0055556 0.0
0.6666667 0.0055556 0.0
0.6722222 0.0055556 0.0
0.6777778 0.0055556 0.0
0.6833333 0.0055556 0.0
0.6888889 0.0055556 0.0
0.6944444 0.0055556 0.0
0.7000000 0.0055556 0.0
0.7055556 0.0055556 0.0
0.7111111 0.0055556 0.0
0.7166667 0.0055556 0.0
0.7222222 0.0055556 0.0
0.7277778 0.0055556 0.0
0.7333333 0.0055556 0.0
0.7388889 0.0055556 0.0
0.7444444 0.0055556 0.0
0.7500000 0.0055556 0.0
0.7555556 0.0055556 0.0
0.7611111 0.0055556 0.0
0.7666667 0.0055556 0.0
0.7722222 0.0055556 0.0
0.7777778 0.0055556 0.0
0.7833333 0.0055556 0.0
0.7888889 0.0055556 0.0
0.7944444 0.0055556 0.0
0.8000000 0.0055556 0.0
0.8055556 0.0055556 0.0
0.8111111 0.0055556 0.0
0.8166667 0.0055556 0.0
0.8222222 0.0055556 0.0
0.8277778 0.0055556 0.0
0.8333333 0.0055556 0.0
0.8388889 0.0055556 0.0
0.8444444 0.0055556 0.0
0.8500000 0.0055556 0.0
0.8555556 0.0055556 0.0
0.8611111 0.0055556 0.0
0.8666667 0.0055556 0.0
0.8722222 0.0055556 0.0
0.8777778 0.0055556 0.0
0.8833333 0.0055556 0.0
0.8888889 0.0055556 0.0
0.8944444 0.0055556 0.0
0.9000000 0.0055556 0.0
0.9055556 0.0055556 0.0
0.9111111 0.0055556 0.0
0.9166667 0.0055556 0.0
0.9222222 0.0055556 0.0
0.9277778 0.0055556 0.0
0.9333333 0.0055556 0.0
0.9388889 0.0055556 0.0
0.9444444 0.0055556 0.0
0.9500000 0.0055556 0.0
0.9555556 0.0055556 0.0
0.9611111 0.0055556 0.0
0.9666667 0.0055556 0.0
0.9722222 0.0055556 0.0
0.9777778 0.0055556 0.0
0.9833333 0.0055556 0.0
0.9888889 0.0055556 0.0
0.9944444 0.0055556 0.0
1.0000000 0.0055556 0.0
0.0000000 0.0111111 0.0
0.0055556 0.0111111 0.0
0.0111111 0.0111111 0.0
0.0166667 0.0111111 0.0
0.0222222 0.0111111 0.0
0.0277778 0.0111111 0.0
0.0333333 0.0111111 0.0
0.0388889 0.0111111 0.0
0.0444444 0.0111111 0.0
0.0500000 0.0111111 0.0
0.0555556 0.0111111 0.0
0.0611111 0.0111111 0.0
0.0666667 0.0111111 0.0
0.0722222 0.0111111 0.0
0.0777778 0.0111111 0.0
0.0833333 0.0111111 0.0
0.0888889 0.0111111 0.0
0.0944444 0.0111111 0.0
0.1000000 0.0111111 0.0
0.1055556 0.0111111 0.0
0.1111111 0.0111111 0.0
0.1166667 0.0111111 0.0
0.1222222 0.0111111 0.0
0.1277778 0.0111111 0.0
0.1333333 0.0111111 0.0
0.1388889 0.0111111 0.0
0.1444444 0.0111111 0.0
0.1500000 0.0111111 0.0
0.1555556 0.0111111 0.0
0.1611111 0.0111111 0.0
0.1666667 0.0111111 0.0
0.1722222 0.0111111 0.0
0.1777778 0.0111111 0.0
0.1833333 0.0111111 0.0
0.1888889 0.0111111 0.0
0.1944444 0.0111111 0.0
0.2000000 0.0111111 0.0
0.2055556 0.0111111 0.0
0.2111111 0.0111111 0.0
0.2166667 0.0111111 0.0
0.2222222 0.0111111 0.0
0.2277778 0.0111111 0.0
0.2333333 0.0111111 0.0
0.2388889 0.0111111 0.0
0.2444444 0.0111111 0.0
0.2500000 0.0111111 0.0
0.2555556 0.0111111 0.0
0.2611111 0.0111111 0.0
0.2666667 0.0111111 0.0
[...]
POINT_DATA 32761
VECTORS velocity float
0.0000000 0.0000000 0.0
0.0000000 0.0000000 0.0
0.0000000 0.0000000 0.0
0.0000000 0.0000000 0.0
0.0000000 0.0000000 0.0
0.0000000 0.0000000 0.0
0.0000000 0.0000000 0.0
0.0000000 0.0000000 0.0
0.0000000 0.0000000 0.0
0.0000000 0.0000000 0.0
0.0000000 0.0000000 0.0
0.0000000 0.0000000 0.0
0.0000000 0.0000000 0.0
0.0000000 0.0000000 0.0
0.0000000 0.0000000 0.0
0.0000000 0.0000000 0.0
0.0000000 0.0000000 0.0
0.0000000 0.0000000 0.0
0.0000000 0.0000000 0.0
0.0000000 0.0000000 0.0
0.0000000 0.0000000 0.0
0.0000000 0.0000000 0.0
0.0000000 0.0000000 0.0
0.0000000 0.0000000 0.0
0.0000000 0.0000000 0.0
0.0000000 0.0000000 0.0
0.0000000 0.0000000 0.0
0.0000000 0.0000000 0.0
0.0000000 0.0000000 0.0
0.0000000 0.0000000 0.0
0.0000000 0.0000000 0.0
0.0000000 0.0000000 0.0
0.0000000 0.0000000 0.0
0.0000000 0.0000000 0.0
0.0000000 0.0000000 0.0
0.0000000 0.0000000 0.0
0.0000000 0.0000000 0.0
0.0000000 0.0000000 0.0
0.0000000 0.0000000 0.0
0.0000000 0.0000000 0.0
0.0000000 0.0000000 0.0
0.0000000 0.0000000 0.0
0.0000000 0.0000000 0.0
0.0000000 0.0000000 0.0
0.0000000 0.0000000 0.0
0.0000000 0.0000000 0.0
0.0000000 0.0000000 0.0
0.0000000 0.0000000 0.0
0.0000000 0.0000000 0.0
0.0000000 0.0000000 0.0
0.0000000 0.0000000 0.0
0.0000000 0.0000000 0.0
0.0000000 0.0000000 0.0
0.0000000 0.0000000 0.0
0.0000000 0.0000000 0.0
0.0000000 0.0000000 0.0
0.0000000 0.0000000 0.0
0.0000000 0.0000000 0.0
0.0000000 0.0000000 0.0
0.0000000 0.0000000 0.0
0.0000000 0.0000000 0.0
0.0000000 0.0000000 0.0
0.0000000 0.0000000 0.0
0.0000000 0.0000000 0.0
0.0000000 0.0000000 0.0
0.0000000 0.0000000 0.0
0.0000000 0.0000000 0.0
0.0000000 0.0000000 0.0
0.0000000 0.0000000 0.0
0.0000000 0.0000000 0.0
0.0000000 0.0000000 0.0
0.0000000 0.0000000 0.0
0.0000000 0.0000000 0.0
0.0000000 0.0000000 0.0
0.0000000 0.0000000 0.0
0.0000000 0.0000000 0.0
0.0000000 0.0000000 0.0
0.0000000 0.0000000 0.0
0.0000000 0.0000000 0.0
0.0000000 0.0000000 0.0
0.0000000 0.0000000 0.0
0.0000000 0.0000000 0.0
0.0000000 0.0000000 0.0
0.0000000 0.0000000 0.0
0.0000000 0.0000000 0.0
0.0000000 0.0000000 0.0
0.0000000 0.0000000 0.0
0.0000000 0.0000000 0.0
0.0000000 0.0000000 0.0
0.0000000 0.0000000 0.0
0.0000000 0.0000000 0.0
0.0000000 0.0000000 0.0
0.0000000 0.0000000 0.0
0.0000000 0.0000000 0.0
0.0000000 0.0000000 0.0
0.0000000 0.0000000 0.0
0.0000000 0.0000000 0.0
0.0000000 0.0000000 0.0
0.0000000 0.0000000 0.0
0.0000000 0.0000000 0.0
0.0000000 0.0000000 0.0
0.0000000 0.0000000 0.0
0.0000000 0.0000000 0.0
0.0000000 0.0000000 0.0
0.0000000 0.0000000 0.0
0.0000000 0.0000000 0.0
0.0000000 0.0000000 0.0
0.0000000 0.0000000 0.0
0.0000000 0.0000000 0.0
0.0000000 0.0000000 0.0
0.0000000 0.0000000 0.0
0.0000000 0.0000000 0.0
0.0000000 0.0000000 0.0
0.0000000 0.0000000 0.0
0.0000000 0.0000000 0.0
0.0000000 0.0000000 0.0
0.0000000 0.0000000 0.0
0.0000000 0.0000000 0.0
0.0000000 0.0000000 0.0
0.0000000 0.0000000 0.0
0.0000000 0.0000000 0.0
0.0000000 0.0000000 0.0
0.0000000 0.0000000 0.0
0.0000000 0.0000000 0.0
0.0000000 0.0000000 0.0
0.0000000 0.0000000 0.0
0.0000000 0.0000000 0.0
0.0000000 0.0000000 0.0
0.0000000 0.0000000 0.0
0.0000000 0.0000000 0.0
0.0000000 0.0000000 0.0
0.0000000 0.0000000 0.0
0.0000000 0.0000000 0.0
0.0000000 0.0000000 0.0
0.0000000 0.0000000 0.0
0.0000000 0.0000000 0.0
0.0000000 0.0000000 0.0
0.0000000 0.0000000 0.0
0.0000000 0.0000000 0.0
0.0000000 0.0000000 0.0
0.0000000 0.0000000 0.0
0.0000000 0.0000000 0.0
0.0000000 0.0000000 0.0
0.0000000 0.0000000 0.0
0.0000000 0.0000000 0.0
0.0000000 0.0000000 0.0
0.0000000 0.0000000 0.0
0.0000000 0.0000000 0.0
0.0000000 0.0000000 0.0
0.0000000 0.0000000 0.0
0.0000000 0.0000000 0.0
0.0000000 0.0000000 0.0
0.0000000 0.0000000 0.0
0.0000000 0.0000000 0.0
0.0000000 0.0000000 0.0
0.0000000 0.0000000 0.0
0.0000000 0.0000000 0.0
0.0000000 0.0000000 0.0
0.0000000 0.0000000 0.0
0.0000000 0.0000000 0.0
0.0000000 0.0000000 0.0
0.0000000 0.0000000 0.0
0.0000000 0.0000000 0.0
0.0000000 0.0000000 0.0
0.0000000 0.0000000 0.0
0.0000000 0.0000000 0.0
0.0000000 0.0000000 0.0
0.0000000 0.0000000 0.0
0.0000000 0.0000000 0.0
0.0000000 0.0000000 0.0
0.0000000 0.0000000 0.0
0.0000000 0.0000000 0.0
0.0000000 0.0000000 0.0
0.0000000 0.0000000 0.0
0.0000000 0.0000000 0.0
0.0000000 0.0000000 0.0
0.0000000 0.0000000 0.0
0.0000000 0.0000000 0.0
0.0000000 0.0000000 0.0
0.0000000 0.0000000 0.0
0.0000001 0.0000000 0.0
0.0000000 0.0000000 0.0
0.0000024 -0.0000024 0.0
0.0000091 -0.0000049 0.0
0.0000185 -0.0000064 0.0
0.0000289 -0.0000067 0.0
0.0000389 -0.0000062 0.0
0.0000473 -0.0000051 0.0
0.0000533 -0.0000036 0.0
0.0000564 -0.0000019 0.0
0.0000561 0.0000000 0.0
0.0000523 0.0000020 0.0
0.0000446 0.0000041 0.0
0.0000331 0.0000062 0.0
0.0000177 0.0000082 0.0
-0.0000016 0.0000103 0.0
-0.0000247 0.0000123 0.0
-0.0000516 0.0000142 0.0
-0.0000821 0.0000161 0.0
-0.0001161 0.0000179 0.0
-0.0001535 0.0000197 0.0
-0.0001941 0.0000213 0.0
-0.0002378 0.0000229 0.0
-0.0002845 0.0000244 0.0
-0.0003340 0.0000258 0.0
-0.0003861 0.0000271 0.0
-0.0004408 0.0000284 0.0
-0.0004978 0.0000295 0.0
-0.0005569 0.0000306 0.0
-0.0006182 0.0000316 0.0
-0.0006813 0.0000326 0.0
-0.0007463 0.0000335 0.0
-0.0008128 0.0000343 0.0
-0.0008809 0.0000350 0.0
-0.0009504 0.0000357 0.0
-0.0010211 0.0000363 0.0
-0.0010930 0.0000368 0.0
-0.0011658 0.0000373 0.0
-0.0012396 0.0000378 0.0
-0.0013142 0.0000381 0.0
-0.0013895 0.0000385 0.0
-0.0014654 0.0000388 0.0
-0.0015418 0.0000390 0.0
-0.0016186 0.0000392 0.0
-0.0016957 0.0000393 0.0
-0.0017730 0.0000394 0.0
-0.0018504 0.0000394 0.0
-0.0019279 0.0000394 0.0
-0.0020053 0.0000394 0.0
-0.0020826 0.0000393 0.0
-0.0021596 0.0000392 0.0
-0.0022364 0.0000390 0.0
-0.0023128 0.0000388 0.0
-0.0023888 0.0000385 0.0
-0.0024642 0.0000383 0.0
-0.0025390 0.0000379 0.0
-0.0026131 0.0000376 0.0
-0.0026864 0.0000372 0.0
-0.0027589 0.0000367 0.0
-0.0028305 0.0000362 0.0
-0.0029011 0.0000357 0.0
-0.0029705 0.0000351 0.0
-0.0030389 0.0000345 0.0
-0.0031060 0.0000339 0.0
-0.0031717 0.0000332 0.0
-0.0032361 0.0000325 0.0
-0.0032990 0.0000317 0.0
-0.0033604 0.0000309 0.0
-0.0034201 0.0000301 0.0
-0.0034781 0.0000292 0.0
-0.0035344 0.0000283 0.0
-0.0035887 0.0000273 0.0
-0.0036411 0.0000263 0.0
-0.0036915 0.0000253 0.0
-0.0037398 0.0000242 0.0
-0.0037859 0.0000230 0.0
-0.0038297 0.0000219 0.0
-0.0038712 0.0000207 0.0
-0.0039103 0.0000194 0.0
-0.0039469 0.0000181 0.0
-0.0039809 0.0000168 0.0
-0.0040123 0.0000155 0.0
-0.0040411 0.0000141 0.0
-0.0040670 0.0000127 0.0
-0.0040902 0.0000112 0.0
-0.0041105 0.0000097 0.0
-0.0041278 0.0000082 0.0
-0.0041421 0.0000067 0.0
-0.0041534 0.0000051 0.0
-0.0041615 0.0000035 0.0
-0.0041666 0.0000019 0.0
-0.0041684 0.0000003 0.0
-0.0041671 -0.0000014 0.0
-0.0041625 -0.0000031 0.0
-0.0041546 -0.0000048 0.0
-0.0041434 -0.0000064 0.0
-0.0041289 -0.0000081 0.0
-0.0041110 -0.0000099 0.0
-0.0040899 -0.0000116 0.0
-0.0040654 -0.0000133 0.0
-0.0040376 -0.0000150 0.0
-0.0040065 -0.0000167 0.0
-0.0039720 -0.0000184 0.0
-0.0039344 -0.0000200 0.0
-0.0038934 -0.0000217 0.0
-0.0038493 -0.0000233 0.0
-0.0038021 -0.0000249 0.0
-0.0037517 -0.0000265 0.0
-0.0036983 -0.0000280 0.0
-0.0036419 -0.0000296 0.0
-0.0035826 -0.0000310 0.0
-0.0035205 -0.0000325 0.0
-0.0034556 -0.0000338 0.0
-0.0033881 -0.0000352 0.0
-0.0033181 -0.0000365 0.0
-0.0032456 -0.0000377 0.0
-0.0031708 -0.0000389 0.0
-0.0030938 -0.0000400 0.0
-0.0030148 -0.0000410 0.0
-0.0029337 -0.0000420 0.0
-0.0028509 -0.0000429 0.0
-0.0027664 -0.0000437 0.0
-0.0026803 -0.0000444 0.0
-0.0025929 -0.0000451 0.0
-0.0025043 -0.0000457 0.0
-0.0024146 -0.0000462 0.0
-0.0023241 -0.0000466 0.0
-0.0022328 -0.0000469 0.0
-0.0021410 -0.0000472 0.0
-0.0020488 -0.0000473 0.0
-0.0019564 -0.0000474 0.0
-0.0018640 -0.0000473 0.0
-0.0017717 -0.0000472 0.0
-0.0016798 -0.0000470 0.0
-0.0015884 -0.0000466 0.0
-0.0014977 -0.0000462 0.0
-0.0014079 -0.0000457 0.0
-0.0013191 -0.0000451 0.0
-0.0012316 -0.0000444 0.0
-0.0011455 -0.0000436 0.0
-0.0010610 -0.0000428 0.0
-0.0009782 -0.0000418 0.0
-0.0008974 -0.0000408 0.0
-0.0008186 -0.0000397 0.0
-0.0007421 -0.0000385 0.0
-0.0006680 -0.0000372 0.0
-0.0005964 -0.0000358 0.0
-0.0005275 -0.0000344 0.0
-0.0004614 -0.0000329 0.0
-0.0003983 -0.0000313 0.0
-0.0003382 -0.0000297 0.0
-0.0002813 -0.0000280 0.0
-0.0002277 -0.0000263 0.0
-0.0001774 -0.0000245 0.0
-0.0001306 -0.0000227 0.0
-0.0000874 -0.0000208 0.0
-0.0000477 -0.0000189 0.0
-0.0000117 -0.0000170 0.0
0.0000206 -0.0000151 0.0
0.0000492 -0.0000132 0.0
0.0000741 -0.0000112 0.0
0.0000953 -0.0000093 0.0
0.0001127 -0.0000073 0.0
0.0001265 -0.0000054 0.0
0.0001367 -0.0000036 0.0
0.0001434 -0.0000017 0.0
0.0001467 0.0000000 0.0
0.0001466 0.0000017 0.0
0.0001435 0.0000033 0.0
0.0001375 0.0000048 0.0
0.0001287 0.0000062 0.0
0.0001177 0.0000073 0.0
0.0001046 0.0000083 0.0
0.0000900 0.0000090 0.0
0.0000743 0.0000094 0.0
0.0000582 0.0000094 0.0
0.0000424 0.0000089 0.0
0.0000278 0.0000078 0.0
0.0000153 0.0000061 0.0
0.0000061 0.0000036 0.0
0.0000010 0.0000010 0.0
0.0000000 0.0000000 0.0
0.0000000 0.0000000 0.0
0.0000049 -0.0000091 0.0
0.0000162 -0.0000162 0.0
0.0000308 -0.0000198 0.0
0.0000464 -0.0000204 0.0
0.0000608 -0.0000183 0.0
0.0000721 -0.0000144 0.0
0.0000790 -0.0000091 0.0
0.0000805 -0.0000028 0.0
0.0000759 0.0000041 0.0
0.0000646 0.0000115 0.0
0.0000462 0.0000192 0.0
0.0000207 0.0000269 0.0
-0.0000121 0.0000347 0.0
-0.0000522 0.0000424 0.0
-0.0000995 0.0000500 0.0
-0.0001538 0.0000573 0.0
-0.0002151 0.0000645 0.0
-0.0002831 0.0000714 0.0
-0.0003575 0.0000780 0.0
-0.0004382 0.0000844 0.0
-0.0005248 0.0000904 0.0
-0.0006171 0.0000962 0.0
-0.0007148 0.0001016 0.0
-0.0008176 0.0001068 0.0
-0.0009253 0.0001116 0.0
-0.0010375 0.0001162 0.0
-0.0011540 0.0001204 0.0
-0.0012744 0.0001244 0.0
-0.0013986 0.0001281 0.0
-0.0015263 0.0001315 0.0
-0.0016572 0.0001346 0.0
-0.0017910 0.0001375 0.0
-0.0019275 0.0001402 0.0
-0.0020665 0.0001426 0.0
-0.0022077 0.0001447 0.0
-0.0023509 0.0001467 0.0
-0.0024959 0.0001484 0.0
-0.0026425 0.0001499 0.0
-0.0027905 0.0001512 0.0
-0.0029396 0.0001523 0.0
-0.0030897 0.0001532 0.0
-0.0032406 0.0001539 0.0
-0.0033920 0.0001544 0.0
-0.0035439 0.0001547 0.0
-0.0036961 0.0001549 0.0
-0.0038483 0.0001549 0.0
-0.0040004 0.0001547 0.0
-0.0041522 0.0001544 0.0
-0.0043036 0.0001538 0.0
-0.0044544 0.0001532 0.0
-0.0046045 0.0001523 0.0
-0.0047537 0.0001514 0.0
-0.0049018 0.0001502 0.0
-0.0050486 0.0001489 0.0
-0.0051941 0.0001474 0.0
-0.0053381 0.0001458 0.0
-0.0054803 0.0001441 0.0
-0.0056208 0.0001421 0.0
-0.0057592 0.0001401 0.0
-0.0058955 0.0001378 0.0
-0.0060295 0.0001354 0.0
-0.0061610 0.0001329 0.0
-0.0062899 0.0001302 0.0
-0.0064161 0.0001273 0.0
-0.0065393 0.0001243 0.0
-0.0066595 0.0001211 0.0
-0.0067764 0.0001177 0.0
-0.0068899 0.0001142 0.0
-0.0069999 0.0001106 0.0
-0.0071062 0.0001068 0.0
-0.0072087 0.0001028 0.0
-0.0073071 0.0000987 0.0
-0.0074014 0.0000944 0.0
-0.0074914 0.0000899 0.0
-0.0075769 0.0000853 0.0
-0.0076578 0.0000806 0.0
-0.0077340 0.0000757 0.0
-0.0078053 0.0000706 0.0
-0.0078715 0.0000655 0.0
-0.0079327 0.0000601 0.0
-0.0079885 0.0000547 0.0
-0.0080388 0.0000491 0.0
-0.0080837 0.0000434 0.0
-0.0081229 0.0000376 0.0
-0.0081563 0.0000316 0.0
-0.0081838 0.0000256 0.0
-0.0082054 0.0000194 0.0
-0.0082209 0.0000132 0.0
-0.0082303 0.0000069 0.0
-0.0082334 0.0000005 0.0
-0.0082303 -0.0000060 0.0
-0.0082207 -0.0000125 0.0
-0.0082048 -0.0000191 0.0
-0.0081825 -0.0000257 0.0
-0.0081537 -0.0000323 0.0
-0.0081184 -0.0000390 0.0
-0.0080766 -0.0000456 0.0
-0.0080283 -0.0000523 0.0
-0.0079735 -0.0000589 0.0
-0.0079123 -0.0000655 0.0
-0.0078446 -0.0000721 0.0
-0.0077706 -0.0000786 0.0
-0.0076903 -0.0000850 0.0
-0.0076038 -0.0000914 0.0
-0.0075111 -0.0000976 0.0
-0.0074124 -0.0001038 0.0
-0.0073078 -0.0001098 0.0
-0.0071975 -0.0001157 0.0
-0.0070814 -0.0001214 0.0
-0.0069599 -0.0001270 0.0
-0.0068331 -0.0001323 0.0
-0.0067011 -0.0001375 0.0
-0.0065642 -0.0001425 0.0
-0.0064226 -0.0001473 0.0
-0.0062764 -0.0001518 0.0
-0.0061260 -0.0001561 0.0
-0.0059716 -0.0001601 0.0
-0.0058133 -0.0001639 0.0
-0.0056515 -0.0001674 0.0
-0.0054865 -0.0001705 0.0
-0.0053185 -0.0001734 0.0
-0.0051479 -0.0001760 0.0
-0.0049749 -0.0001783 0.0
-0.0047999 -0.0001802 0.0
-0.0046231 -0.0001818 0.0
-0.0044449 -0.0001831 0.0
-0.0042657 -0.0001840 0.0
-0.0040857 -0.0001846 0.0
-0.0039053 -0.0001848 0.0
-0.0037249 -0.0001847 0.0
-0.0035448 -0.0001842 0.0
-0.0033653 -0.0001833 0.0
-0.0031868 -0.0001821 0.0
-0.0030097 -0.0001805 0.0
-0.0028342 -0.0001786 0.0
-0.0026608 -0.0001763 0.0
-0.0024897 -0.0001736 0.0
-0.0023213 -0.0001706 0.0
-0.0021560 -0.0001673 0.0
-0.0019941 -0.0001636 0.0
-0.0018359 -0.0001596 0.0
-0.0016817 -0.0001553 0.0
-0.0015317 -0.0001506 0.0
-0.0013864 -0.0001457 0.0
-0.0012460 -0.0001405 0.0
-0.0011107 -0.0001350 0.0
-0.0009808 -0.0001292 0.0
-0.0008566 -0.0001232 0.0
-0.0007383 -0.0001170 0.0
-0.0006261 -0.0001105 0.0
-0.0005202 -0.0001039 0.0
-0.0004208 -0.0000970 0.0
-0.0003280 -0.0000900 0.0
-0.0002419 -0.0000829 0.0
-0.0001628 -0.0000757 0.0
-0.0000907 -0.0000683 0.0
-0.0000257 -0.0000609 0.0
0.0000323 -0.0000535 0.0
0.0000831 -0.0000460 0.0
0.0001268 -0.0000386 0.0
0.0001634 -0.0000313 0.0
0.0001930 -0.0000240 0.0
0.0002158 -0.0000169 0.0
0.0002319 -0.0000099 0.0
0.0002415 -0.0000032 0.0
0.0002448 0.0000032 0.0
0.0002423 0.0000092 0.0
0.0002343 0.0000148 0.0
0.0002213 0.0000198 0.0
0.0002038 0.0000241 0.0
0.0001826 0.0000277 0.0
0.0001584 0.0000303 0.0
0.0001322 0.0000318 0.0
0.0001050 0.0000319 0.0
0.0000782 0.0000304 0.0
0.0000531 0.0000271 0.0
0.0000313 0.0000217 0.0
0.0000143 0.0000144 0.0
0.0000036 0.0000061 0.0
0.0000000 0.0000000 0.0
0.0000000 0.0000000 0.0
0.0000064 -0.0000185 0.0
0.0000199 -0.0000308 0.0
0.0000367 -0.0000366 0.0
0.0000536 -0.0000366 0.0
0.0000682 -0.0000318 0.0
0.0000781 -0.0000233 0.0
0.0000817 -0.0000121 0.0
0.0000778 0.0000012 0.0
0.0000652 0.0000160 0.0
0.0000433 0.0000316 0.0
0.0000115 0.0000479 0.0
-0.0000303 0.0000645 0.0
-0.0000824 0.0000811 0.0
-0.0001449 0.0000977 0.0
-0.0002175 0.0001140 0.0
-0.0003002 0.0001299 0.0
-0.0003928 0.0001454 0.0
-0.0004949 0.0001603 0.0
-0.0006063 0.0001748 0.0
-0.0007266 0.0001886 0.0
-0.0008555 0.0002018 0.0
-0.0009926 0.0002144 0.0
-0.0011375 0.0002263 0.0
-0.0012898 0.0002376 0.0
-0.0014491 0.0002482 0.0
-0.0016150 0.0002582 0.0
-0.0017872 0.0002676 0.0
-0.0019651 0.0002763 0.0
-0.0021485 0.0002844 0.0
-0.0023369 0.0002920 0.0
-0.0025301 0.0002989 0.0
-0.0027275 0.0003053 0.0
-0.0029289 0.0003112 0.0
-0.0031339 0.0003165 0.0
-0.0033422 0.0003213 0.0
-0.0035534 0.0003256 0.0
-0.0037673 0.0003294 0.0
-0.0039834 0.0003327 0.0
-0.0042016 0.0003355 0.0
-0.0044215 0.0003380 0.0
-0.0046428 0.0003400 0.0
-0.0048653 0.0003415 0.0
-0.0050886 0.0003427 0.0
-0.0053126 0.0003434 0.0
-0.0055369 0.0003438 0.0
-0.0057612 0.0003437 0.0
-0.0059855 0.0003433 0.0
-0.0062093 0.0003425 0.0
-0.0064324 0.0003414 0.0
-0.0066547 0.0003399 0.0
-0.0068759 0.0003380 0.0
-0.0070956 0.0003358 0.0
-0.0073138 0.0003332 0.0
-0.0075302 0.0003303 0.0
-0.0077444 0.0003270 0.0
-0.0079564 0.0003234 0.0
-0.0081659 0.0003194 0.0
-0.0083726 0.0003151 0.0
-0.0085764 0.0003104 0.0
-0.0087770 0.0003054 0.0
-0.0089741 0.0003001 0.0
-0.0091676 0.0002943 0.0
-0.0093571 0.0002883 0.0
-0.0095426 0.0002819 0.0
-0.0097237 0.0002751 0.0
-0.0099003 0.0002680 0.0
-0.0100720 0.0002605 0.0
-0.0102387 0.0002527 0.0
-0.0104002 0.0002446 0.0
-0.0105562 0.0002360 0.0
-0.0107064 0.0002272 0.0
-0.0108508 0.0002180 0.0
-0.0109890 0.0002084 0.0
-0.0111208 0.0001985 0.0
-0.0112460 0.0001883 0.0
-0.0113644 0.0001778 0.0
-0.0114759 0.0001669 0.0
-0.0115801 0.0001557 0.0
-0.0116768 0.0001442 0.0
-0.0117660 0.0001324 0.0
-0.0118474 0.0001203 0.0
-0.0119208 0.0001079 0.0
-0.0119860 0.0000952 0.0
-0.0120429 0.0000823 0.0
-0.0120913 0.0000692 0.0
-0.0121311 0.0000558 0.0
-0.0121620 0.0000422 0.0
-0.0121841 0.0000284 0.0
-0.0121972 0.0000144 0.0
-0.0122011 0.0000002 0.0
-0.0121958 -0.0000141 0.0
-0.0121811 -0.0000285 0.0
-0.0121571 -0.0000430 0.0
-0.0121237 -0.0000576 0.0
-0.0120808 -0.0000723 0.0
-0.0120283 -0.0000870 0.0
-0.0119664 -0.0001017 0.0
-0.0118950 -0.0001163 0.0
-0.0118140 -0.0001310 0.0
-0.0117237 -0.0001455 0.0
-0.0116240 -0.0001600 0.0
-0.0115150 -0.0001743 0.0
-0.0113968 -0.0001885 0.0
-0.0112694 -0.0002025 0.0
-0.0111332 -0.0002163 0.0
-0.0109881 -0.0002298 0.0
-0.0108345 -0.0002430 0.0
-0.0106723 -0.0002560 0.0
-0.0105020 -0.0002686 0.0
-0.0103236 -0.0002808 0.0
-0.0101375 -0.0002926 0.0
-0.0099439 -0.0003040 0.0
-0.0097431 -0.0003150 0.0
-0.0095354 -0.0003255 0.0
-0.0093212 -0.0003354 0.0
-0.0091006 -0.0003449 0.0
-0.0088742 -0.0003537 0.0
-0.0086423 -0.0003620 0.0
-0.0084053 -0.0003696 0.0
-0.0081635 -0.0003767 0.0
-0.0079174 -0.0003830 0.0
-0.0076674 -0.0003887 0.0
-0.0074140 -0.0003937 0.0
-0.0071576 -0.0003980 0.0
-0.0068987 -0.0004015 0.0
-0.0066377 -0.0004043 0.0
-0.0063751 -0.0004064 0.0
-0.0061114 -0.0004076 0.0
-0.0058471 -0.0004081 0.0
-0.0055828 -0.0004079 0.0
-0.0053188 -0.0004068 0.0
-0.0050558 -0.0004049 0.0
-0.0047941 -0.0004023 0.0
-0.0045344 -0.0003988 0.0
-0.0042771 -0.0003946 0.0
-0.0040228 -0.0003896 0.0
-0.0037718 -0.0003838 0.0
-0.0035247 -0.0003773 0.0
-0.0032821 -0.0003700 0.0
-0.0030443 -0.0003620 0.0
-0.0028118 -0.0003532 0.0
-0.0025851 -0.0003438 0.0
-0.0023645 -0.0003337 0.0
-0.0021507 -0.0003229 0.0
-0.0019439 -0.0003115 0.0
-0.0017445 -0.0002995 0.0
-0.0015529 -0.0002869 0.0
-0.0013695 -0.0002738 0.0
-0.0011945 -0.0002602 0.0
-0.0010284 -0.0002461 0.0
-0.0008714 -0.0002316 0.0
-0.0007237 -0.0002167 0.0
-0.0005855 -0.0002015 0.0
-0.0004571 -0.0001860 0.0
-0.0003387 -0.0001702 0.0
-0.0002303 -0.0001542 0.0
-0.0001321 -0.0001381 0.0
-0.0000441 -0.0001219 0.0
0.0000337 -0.0001057 0.0
0.0001012 -0.0000896 0.0
0.0001586 -0.0000736 0.0
0.0002060 -0.0000578 0.0
0.0002436 -0.0000424 0.0
0.0002715 -0.0000274 0.0
0.0002903 -0.0000129 0.0
0.0003001 0.0000009 0.0
0.0003016 0.0000139 0.0
0.0002952 0.0000258 0.0
0.0002817 0.0000366 0.0
0.0002619 0.0000460 0.0
0.0002366 0.0000537 0.0
0.0002071 0.0000594 0.0
0.0001745 0.0000628 0.0
0.0001402 0.0000634 0.0
0.0001060 0.0000608 0.0
0.0000736 0.0000547 0.0
0.0000448 0.0000448 0.0
0.0000216 0.0000313 0.0
0.0000061 0.0000153 0.0
0.0000000 0.0000000 0.0
0.0000000 0.0000000 0.0
0.0000067 -0.0000290 0.0
0.0000205 -0.0000465 0.0
0.0000368 -0.0000536 0.0
0.0000520 -0.0000518 0.0
0.0000634 -0.0000428 0.0
0.0000685 -0.0000280 0.0
0.0000655 -0.0000088 0.0
0.0000527 0.0000137 0.0
0.0000291 0.0000386 0.0
-0.0000062 0.0000652 0.0
-0.0000539 0.0000928 0.0
-0.0001142 0.0001209 0.0
-0.0001875 0.0001493 0.0
-0.0002738 0.0001775 0.0
-0.0003730 0.0002053 0.0
-0.0004849 0.0002326 0.0
-0.0006093 0.0002592 0.0
-0.0007459 0.0002849 0.0
-0.0008943 0.0003097 0.0
-0.0010541 0.0003336 0.0
-0.0012249 0.0003564 0.0
-0.0014062 0.0003781 0.0
-0.0015975 0.0003988 0.0
-0.0017983 0.0004184 0.0
-0.0020081 0.0004368 0.0
-0.0022264 0.0004542 0.0
-0.0024528 0.0004705 0.0
-0.0026867 0.0004857 0.0
-0.0029277 0.0004999 0.0
-0.0031752 0.0005131 0.0
-0.0034287 0.0005252 0.0
-0.0036879 0.0005364 0.0
-0.0039522 0.0005466 0.0
-0.0042212 0.0005559 0.0
-0.0044944 0.0005642 0.0
-0.0047715 0.0005717 0.0
-0.0050520 0.0005784 0.0
-0.0053356 0.0005842 0.0
-0.0056217 0.0005892 0.0
-0.0059101 0.0005935 0.0
-0.0062003 0.0005969 0.0
-0.0064920 0.0005997 0.0
-0.0067849 0.0006017 0.0
-0.0070785 0.0006030 0.0
-0.0073725 0.0006036 0.0
-0.0076667 0.0006035 0.0
-0.0079606 0.0006027 0.0
-0.0082540 0.0006013 0.0
-0.0085465 0.0005993 0.0
-0.0088378 0.0005966 0.0
-0.0091275 0.0005933 0.0
-0.0094155 0.0005893 0.0
-0.0097013 0.0005847 0.0
-0.0099847 0.0005795 0.0
-0.0102653 0.0005737 0.0
-0.0105430 0.0005673 0.0
-0.0108172 0.0005603 0.0
-0.0110878 0.0005526 0.0
-0.0113545 0.0005444 0.0
-0.0116169 0.0005355 0.0
-0.0118748 0.0005260 0.0
-0.0121279 0.0005159 0.0
-0.0123758 0.0005052 0.0
-0.0126182 0.0004939 0.0
-0.0128550 0.0004819 0.0
-0.0130856 0.0004694 0.0
-0.0133100 0.0004562 0.0
-0.0135277 0.0004424 0.0
-0.0137385 0.0004280 0.0
-0.0139420 0.0004130 0.0
-0.0141380 0.0003974 0.0
-0.0143263 0.0003812 0.0
-0.0145064 0.0003644 0.0
-0.0146781 0.0003470 0.0
-0.0148412 0.0003290 0.0