# vtk DataFile Version 2.0
Lid Driven Cavity Flow
ASCII
DATASET STRUCTURED_GRID
DIMENSIONS 181 181 1
POINTS 32761 float
0.0000000 0.0000000 0.0
0.0055556 0.0000000 0.0
0.0111111 0.0000000 0.0
0.0166667 0.0000000 0.0
0.0222222 0.0000000 0.0
0.0277778 0.0000000 0.0
0.0333333 0.0000000 0.0
0.0388889 0.0000000 0.0
0.0444444 0.0000000 0.0
0.0500000 0.0000000 0.0
0.0555556 0.0000000 0.0
0.0611111 0.0000000 0.0
0.0666667 0.0000000 0.0
0.0722222 0.0000000 0.0
0.0777778 0.0000000 0.0
0.0833333 0.0000000 0.0
0.0888889 0.0000000 0.0
0.0944444 0.0000000 0.0
0.1000000 0.0000000 0.0
0.1055556 0.0000000 0.0
0.1111111 0.0000000 0.0
0.1166667 0.0000000 0.0
0.1222222 0.0000000 0.0
0.1277778 0.0000000 0.0
0.1333333 0.0000000 0.0
0.1388889 0.0000000 0.0
0.1444444 0.0000000 0.0
0.1500000 0.0000000 0.0
0.1555556 0.0000000 0.0
0.1611111 0.0000000 0.0
0.1666667 0.0000000 0.0
0.1722222 0.0000000 0.0
0.1777778 0.0000000 0.0
0.1833333 0.0000000 0.0
0.1888889 0.0000000 0.0
0.1944444 0.0000000 0.0
0.2000000 0.0000000 0.0
0.2055556 0.0000000 0.0
0.2111111 0.0000000 0.0
0.2166667 0.0000000 0.0
0.2222222 0.0000000 0.0
0.2277778 0.0000000 0.0
0.2333333 0.0000000 0.0
0.2388889 0.0000000 0.0
0.2444444 0.0000000 0.0
0.2500000 0.0000000 0.0
0.2555556 0.0000000 0.0
0.2611111 0.0000000 0.0
0.2666667 0.0000000 0.0
0.2722222 0.0000000 0.0
0.2777778 0.0000000 0.0
0.2833333 0.0000000 0.0
0.2888889 0.0000000 0.0
0.2944444 0.0000000 0.0
0.3000000 0.0000000 0.0
0.3055556 0.0000000 0.0
0.3111111 0.0000000 0.0
0.3166667 0.0000000 0.0
0.3222222 0.0000000 0.0
0.3277778 0.0000000 0.0
0.3333333 0.0000000 0.0
0.3388889 0.0000000 0.0
0.3444444 0.0000000 0.0
0.3500000 0.0000000 0.0
0.3555556 0.0000000 0.0
0.3611111 0.0000000 0.0
0.3666667 0.0000000 0.0
0.3722222 0.0000000 0.0
0.3777778 0.0000000 0.0
0.3833333 0.0000000 0.0
0.3888889 0.0000000 0.0
0.3944444 0.0000000 0.0
0.4000000 0.0000000 0.0
0.4055556 0.0000000 0.0
0.4111111 0.0000000 0.0
0.4166667 0.0000000 0.0
0.4222222 0.0000000 0.0
0.4277778 0.0000000 0.0
0.4333333 0.0000000 0.0
0.4388889 0.0000000 0.0
0.4444444 0.0000000 0.0
0.4500000 0.0000000 0.0
0.4555556 0.0000000 0.0
0.4611111 0.0000000 0.0
0.4666667 0.0000000 0.0
0.4722222 0.0000000 0.0
0.4777778 0.0000000 0.0
0.4833333 0.0000000 0.0
0.4888889 0.0000000 0.0
0.4944444 0.0000000 0.0
0.5000000 0.0000000 0.0
0.5055556 0.0000000 0.0
0.5111111 0.0000000 0.0
0.5166667 0.0000000 0.0
0.5222222 0.0000000 0.0
0.5277778 0.0000000 0.0
0.5333333 0.0000000 0.0
0.5388889 0.0000000 0.0
0.5444444 0.0000000 0.0
0.5500000 0.0000000 0.0
0.5555556 0.0000000 0.0
0.5611111 0.0000000 0.0
0.5666667 0.0000000 0.0
0.5722222 0.0000000 0.0
0.5777778 0.0000000 0.0
0.5833333 0.0000000 0.0
0.5888889 0.0000000 0.0
0.5944444 0.0000000 0.0
0.6000000 0.0000000 0.0
0.6055556 0.0000000 0.0
0.6111111 0.0000000 0.0
0.6166667 0.0000000 0.0
0.6222222 0.0000000 0.0
0.6277778 0.0000000 0.0
0.6333333 0.0000000 0.0
0.6388889 0.0000000 0.0
0.6444444 0.0000000 0.0
0.6500000 0.0000000 0.0
0.6555556 0.0000000 0.0
0.6611111 0.0000000 0.0
0.6666667 0.0000000 0.0
0.6722222 0.0000000 0.0
0.6777778 0.0000000 0.0
0.6833333 0.0000000 0.0
0.6888889 0.0000000 0.0
0.6944444 0.0000000 0.0
0.7000000 0.0000000 0.0
0.7055556 0.0000000 0.0
0.7111111 0.0000000 0.0
0.7166667 0.0000000 0.0
0.7222222 0.0000000 0.0
0.7277778 0.0000000 0.0
0.7333333 0.0000000 0.0
0.7388889 0.0000000 0.0
0.7444444 0.0000000 0.0
0.7500000 0.0000000 0.0
0.7555556 0.0000000 0.0
0.7611111 0.0000000 0.0
0.7666667 0.0000000 0.0
0.7722222 0.0000000 0.0
0.7777778 0.0000000 0.0
0.7833333 0.0000000 0.0
0.7888889 0.0000000 0.0
0.7944444 0.0000000 0.0
0.8000000 0.0000000 0.0
0.8055556 0.0000000 0.0
0.8111111 0.0000000 0.0
0.8166667 0.0000000 0.0
0.8222222 0.0000000 0.0
0.8277778 0.0000000 0.0
0.8333333 0.0000000 0.0
0.8388889 0.0000000 0.0
0.8444444 0.0000000 0.0
0.8500000 0.0000000 0.0
0.8555556 0.0000000 0.0
0.8611111 0.0000000 0.0
0.8666667 0.0000000 0.0
0.8722222 0.0000000 0.0
0.8777778 0.0000000 0.0
0.8833333 0.0000000 0.0
0.8888889 0.0000000 0.0
0.8944444 0.0000000 0.0
0.9000000 0.0000000 0.0
0.9055556 0.0000000 0.0
0.9111111 0.0000000 0.0
0.9166667 0.0000000 0.0
0.9222222 0.0000000 0.0
0.9277778 0.0000000 0.0
0.9333333 0.0000000 0.0
0.9388889 0.0000000 0.0
0.9444444 0.0000000 0.0
0.9500000 0.0000000 0.0
0.9555556 0.0000000 0.0
0.9611111 0.0000000 0.0
0.9666667 0.0000000 0.0
0.9722222 0.0000000 0.0
0.9777778 0.0000000 0.0
0.9833333 0.0000000 0.0
0.9888889 0.0000000 0.0
0.9944444 0.0000000 0.0
1.0000000 0.0000000 0.0
0.0000000 0.0055556 0.0
0.0055556 0.0055556 0.0
0.0111111 0.0055556 0.0
0.0166667 0.0055556 0.0
0.0222222 0.0055556 0.0
0.0277778 0.0055556 0.0
0.0333333 0.0055556 0.0
0.0388889 0.0055556 0.0
0.0444444 0.0055556 0.0
0.0500000 0.0055556 0.0
0.0555556 0.0055556 0.0
0.0611111 0.0055556 0.0
0.0666667 0.0055556 0.0
0.0722222 0.0055556 0.0
0.0777778 0.0055556 0.0
0.0833333 0.0055556 0.0
0.0888889 0.0055556 0.0
0.0944444 0.0055556 0.0
0.1000000 0.0055556 0.0
0.1055556 0.0055556 0.0
0.1111111 0.0055556 0.0
0.1166667 0.0055556 0.0
0.1222222 0.0055556 0.0
0.1277778 0.0055556 0.0
0.1333333 0.0055556 0.0
0.1388889 0.0055556 0.0
0.1444444 0.0055556 0.0
0.1500000 0.0055556 0.0
0.1555556 0.0055556 0.0
0.1611111 0.0055556 0.0
0.1666667 0.0055556 0.0
0.1722222 0.0055556 0.0
0.1777778 0.0055556 0.0
0.1833333 0.0055556 0.0
0.1888889 0.0055556 0.0
0.1944444 0.0055556 0.0
0.2000000 0.0055556 0.0
0.2055556 0.0055556 0.0
0.2111111 0.0055556 0.0
0.2166667 0.0055556 0.0
0.2222222 0.0055556 0.0
0.2277778 0.0055556 0.0
0.2333333 0.0055556 0.0
0.2388889 0.0055556 0.0
0.2444444 0.0055556 0.0
0.2500000 0.0055556 0.0
0.2555556 0.0055556 0.0
0.2611111 0.0055556 0.0
0.2666667 0.0055556 0.0
0.2722222 0.0055556 0.0
0.2777778 0.0055556 0.0
0.2833333 0.0055556 0.0
0.2888889 0.0055556 0.0
0.2944444 0.0055556 0.0
0.3000000 0.0055556 0.0
0.3055556 0.0055556 0.0
0.3111111 0.0055556 0.0
0.3166667 0.0055556 0.0
0.3222222 0.0055556 0.0
0.3277778 0.0055556 0.0
0.3333333 0.0055556 0.0
0.3388889 0.0055556 0.0
0.3444444 0.0055556 0.0
0.3500000 0.0055556 0.0
0.3555556 0.0055556 0.0
0.3611111 0.0055556 0.0
0.3666667 0.0055556 0.0
0.3722222 0.0055556 0.0
0.3777778 0.0055556 0.0
0.3833333 0.0055556 0.0
0.3888889 0.0055556 0.0
0.3944444 0.0055556 0.0
0.4000000 0.0055556 0.0
0.4055556 0.0055556 0.0
0.4111111 0.0055556 0.0
0.4166667 0.0055556 0.0
0.4222222 0.0055556 0.0
0.4277778 0.0055556 0.0
0.4333333 0.0055556 0.0
0.4388889 0.0055556 0.0
0.4444444 0.0055556 0.0
0.4500000 0.0055556 0.0
0.4555556 0.0055556 0.0
0.4611111 0.0055556 0.0
0.4666667 0.0055556 0.0
0.4722222 0.0055556 0.0
0.4777778 0.0055556 0.0
0.4833333 0.0055556 0.0
0.4888889 0.0055556 0.0
0.4944444 0.0055556 0.0
0.5000000 0.0055556 0.0
0.5055556 0.0055556 0.0
0.5111111 0.0055556 0.0
0.5166667 0.0055556 0.0
0.5222222 0.0055556 0.0
0.5277778 0.0055556 0.0
0.5333333 0.0055556 0.0
0.5388889 0.0055556 0.0
0.5444444 0.0055556 0.0
0.5500000 0.0055556 0.0
0.5555556 0.0055556 0.0
0.5611111 0.0055556 0.0
0.5666667 0.0055556 0.0
0.5722222 0.0055556 0.0
0.5777778 0.0055556 0.0
0.5833333 0.0055556 0.0
0.5888889 0.0055556 0.0
0.5944444 0.0055556 0.0
0.6000000 0.0055556 0.0
0.6055556 0.0055556 0.0
0.6111111 0.0055556 0.0
0.6166667 0.0055556 0.0
0.6222222 0.0055556 0.0
0.6277778 0.0055556 0.0
0.6333333 0.0055556 0.0
0.6388889 0.0055556 0.0
0.6444444 0.0055556 0.0
0.6500000 0.0055556 0.0
0.6555556 0.0055556 0.0
0.6611111 0.0055556 0.0
0.6666667 0.0055556 0.0
0.6722222 0.0055556 0.0
0.6777778 0.0055556 0.0
0.6833333 0.0055556 0.0
0.6888889 0.0055556 0.0
0.6944444 0.0055556 0.0
0.7000000 0.0055556 0.0
0.7055556 0.0055556 0.0
0.7111111 0.0055556 0.0
0.7166667 0.0055556 0.0
0.7222222 0.0055556 0.0
0.7277778 0.0055556 0.0
0.7333333 0.0055556 0.0
0.7388889 0.0055556 0.0
0.7444444 0.0055556 0.0
0.7500000 0.0055556 0.0
0.7555556 0.0055556 0.0
0.7611111 0.0055556 0.0
0.7666667 0.0055556 0.0
0.7722222 0.0055556 0.0
0.7777778 0.0055556 0.0
0.7833333 0.0055556 0.0
0.7888889 0.0055556 0.0
0.7944444 0.0055556 0.0
0.8000000 0.0055556 0.0
0.8055556 0.0055556 0.0
0.8111111 0.0055556 0.0
0.8166667 0.0055556 0.0
0.8222222 0.0055556 0.0
0.8277778 0.0055556 0.0
0.8333333 0.0055556 0.0
0.8388889 0.0055556 0.0
0.8444444 0.0055556 0.0
0.8500000 0.0055556 0.0
0.8555556 0.0055556 0.0
0.8611111 0.0055556 0.0
0.8666667 0.0055556 0.0
0.8722222 0.0055556 0.0
0.8777778 0.0055556 0.0
0.8833333 0.0055556 0.0
0.8888889 0.0055556 0.0
0.8944444 0.0055556 0.0
0.9000000 0.0055556 0.0
0.9055556 0.0055556 0.0
0.9111111 0.0055556 0.0
0.9166667 0.0055556 0.0
0.9222222 0.0055556 0.0
0.9277778 0.0055556 0.0
0.9333333 0.0055556 0.0
0.9388889 0.0055556 0.0
0.9444444 0.0055556 0.0
0.9500000 0.0055556 0.0
0.9555556 0.0055556 0.0
0.9611111 0.0055556 0.0
0.9666667 0.0055556 0.0
0.9722222 0.0055556 0.0
0.9777778 0.0055556 0.0
0.9833333 0.0055556 0.0
0.9888889 0.0055556 0.0
0.9944444 0.0055556 0.0
1.0000000 0.0055556 0.0
0.0000000 0.0111111 0.0
0.0055556 0.0111111 0.0
0.0111111 0.0111111 0.0
0.0166667 0.0111111 0.0
0.0222222 0.0111111 0.0
0.0277778 0.0111111 0.0
0.0333333 0.0111111 0.0
0.0388889 0.0111111 0.0
0.0444444 0.0111111 0.0
0.0500000 0.0111111 0.0
0.0555556 0.0111111 0.0
0.0611111 0.0111111 0.0
0.0666667 0.0111111 0.0
0.0722222 0.0111111 0.0
0.0777778 0.0111111 0.0
0.0833333 0.0111111 0.0
0.0888889 0.0111111 0.0
0.0944444 0.0111111 0.0
0.1000000 0.0111111 0.0
0.1055556 0.0111111 0.0
0.1111111 0.0111111 0.0
0.1166667 0.0111111 0.0
0.1222222 0.0111111 0.0
0.1277778 0.0111111 0.0
0.1333333 0.0111111 0.0
0.1388889 0.0111111 0.0
0.1444444 0.0111111 0.0
0.1500000 0.0111111 0.0
0.1555556 0.0111111 0.0
0.1611111 0.0111111 0.0
0.1666667 0.0111111 0.0
0.1722222 0.0111111 0.0
0.1777778 0.0111111 0.0
0.1833333 0.0111111 0.0
0.1888889 0.0111111 0.0
0.1944444 0.0111111 0.0
0.2000000 0.0111111 0.0
0.2055556 0.0111111 0.0
0.2111111 0.0111111 0.0
0.2166667 0.0111111 0.0
0.2222222 0.0111111 0.0
0.2277778 0.0111111 0.0
0.2333333 0.0111111 0.0
0.2388889 0.0111111 0.0
0.2444444 0.0111111 0.0
0.2500000 0.0111111 0.0
0.2555556 0.0111111 0.0
0.2611111 0.0111111 0.0
0.2666667 0.0111111 0.0
[...]
POINT_DATA 32761
VECTORS velocity float
0.0000000 0.0000000 0.0
0.0000000 0.0000000 0.0
0.0000000 0.0000000 0.0
0.0000000 0.0000000 0.0
0.0000000 0.0000000 0.0
0.0000000 0.0000000 0.0
0.0000000 0.0000000 0.0
0.0000000 0.0000000 0.0
0.0000000 0.0000000 0.0
0.0000000 0.0000000 0.0
0.0000000 0.0000000 0.0
0.0000000 0.0000000 0.0
0.0000000 0.0000000 0.0
0.0000000 0.0000000 0.0
0.0000000 0.0000000 0.0
0.0000000 0.0000000 0.0
0.0000000 0.0000000 0.0
0.0000000 0.0000000 0.0
0.0000000 0.0000000 0.0
0.0000000 0.0000000 0.0
0.0000000 0.0000000 0.0
0.0000000 0.0000000 0.0
0.0000000 0.0000000 0.0
0.0000000 0.0000000 0.0
0.0000000 0.0000000 0.0
0.0000000 0.0000000 0.0
0.0000000 0.0000000 0.0
0.0000000 0.0000000 0.0
0.0000000 0.0000000 0.0
0.0000000 0.0000000 0.0
0.0000000 0.0000000 0.0
0.0000000 0.0000000 0.0
0.0000000 0.0000000 0.0
0.0000000 0.0000000 0.0
0.0000000 0.0000000 0.0
0.0000000 0.0000000 0.0
0.0000000 0.0000000 0.0
0.0000000 0.0000000 0.0
0.0000000 0.0000000 0.0
0.0000000 0.0000000 0.0
0.0000000 0.0000000 0.0
0.0000000 0.0000000 0.0
0.0000000 0.0000000 0.0
0.0000000 0.0000000 0.0
0.0000000 0.0000000 0.0
0.0000000 0.0000000 0.0
0.0000000 0.0000000 0.0
0.0000000 0.0000000 0.0
0.0000000 0.0000000 0.0
0.0000000 0.0000000 0.0
0.0000000 0.0000000 0.0
0.0000000 0.0000000 0.0
0.0000000 0.0000000 0.0
0.0000000 0.0000000 0.0
0.0000000 0.0000000 0.0
0.0000000 0.0000000 0.0
0.0000000 0.0000000 0.0
0.0000000 0.0000000 0.0
0.0000000 0.0000000 0.0
0.0000000 0.0000000 0.0
0.0000000 0.0000000 0.0
0.0000000 0.0000000 0.0
0.0000000 0.0000000 0.0
0.0000000 0.0000000 0.0
0.0000000 0.0000000 0.0
0.0000000 0.0000000 0.0
0.0000000 0.0000000 0.0
0.0000000 0.0000000 0.0
0.0000000 0.0000000 0.0
0.0000000 0.0000000 0.0
0.0000000 0.0000000 0.0
0.0000000 0.0000000 0.0
0.0000000 0.0000000 0.0
0.0000000 0.0000000 0.0
0.0000000 0.0000000 0.0
0.0000000 0.0000000 0.0
0.0000000 0.0000000 0.0
0.0000000 0.0000000 0.0
0.0000000 0.0000000 0.0
0.0000000 0.0000000 0.0
0.0000000 0.0000000 0.0
0.0000000 0.0000000 0.0
0.0000000 0.0000000 0.0
0.0000000 0.0000000 0.0
0.0000000 0.0000000 0.0
0.0000000 0.0000000 0.0
0.0000000 0.0000000 0.0
0.0000000 0.0000000 0.0
0.0000000 0.0000000 0.0
0.0000000 0.0000000 0.0
0.0000000 0.0000000 0.0
0.0000000 0.0000000 0.0
0.0000000 0.0000000 0.0
0.0000000 0.0000000 0.0
0.0000000 0.0000000 0.0
0.0000000 0.0000000 0.0
0.0000000 0.0000000 0.0
0.0000000 0.0000000 0.0
0.0000000 0.0000000 0.0
0.0000000 0.0000000 0.0
0.0000000 0.0000000 0.0
0.0000000 0.0000000 0.0
0.0000000 0.0000000 0.0
0.0000000 0.0000000 0.0
0.0000000 0.0000000 0.0
0.0000000 0.0000000 0.0
0.0000000 0.0000000 0.0
0.0000000 0.0000000 0.0
0.0000000 0.0000000 0.0
0.0000000 0.0000000 0.0
0.0000000 0.0000000 0.0
0.0000000 0.0000000 0.0
0.0000000 0.0000000 0.0
0.0000000 0.0000000 0.0
0.0000000 0.0000000 0.0
0.0000000 0.0000000 0.0
0.0000000 0.0000000 0.0
0.0000000 0.0000000 0.0
0.0000000 0.0000000 0.0
0.0000000 0.0000000 0.0
0.0000000 0.0000000 0.0
0.0000000 0.0000000 0.0
0.0000000 0.0000000 0.0
0.0000000 0.0000000 0.0
0.0000000 0.0000000 0.0
0.0000000 0.0000000 0.0
0.0000000 0.0000000 0.0
0.0000000 0.0000000 0.0
0.0000000 0.0000000 0.0
0.0000000 0.0000000 0.0
0.0000000 0.0000000 0.0
0.0000000 0.0000000 0.0
0.0000000 0.0000000 0.0
0.0000000 0.0000000 0.0
0.0000000 0.0000000 0.0
0.0000000 0.0000000 0.0
0.0000000 0.0000000 0.0
0.0000000 0.0000000 0.0
0.0000000 0.0000000 0.0
0.0000000 0.0000000 0.0
0.0000000 0.0000000 0.0
0.0000000 0.0000000 0.0
0.0000000 0.0000000 0.0
0.0000000 0.0000000 0.0
0.0000000 0.0000000 0.0
0.0000000 0.0000000 0.0
0.0000000 0.0000000 0.0
0.0000000 0.0000000 0.0
0.0000000 0.0000000 0.0
0.0000000 0.0000000 0.0
0.0000000 0.0000000 0.0
0.0000000 0.0000000 0.0
0.0000000 0.0000000 0.0
0.0000000 0.0000000 0.0
0.0000000 0.0000000 0.0
0.0000000 0.0000000 0.0
0.0000000 0.0000000 0.0
0.0000000 0.0000000 0.0
0.0000000 0.0000000 0.0
0.0000000 0.0000000 0.0
0.0000000 0.0000000 0.0
0.0000000 0.0000000 0.0
0.0000000 0.0000000 0.0
0.0000000 0.0000000 0.0
0.0000000 0.0000000 0.0
0.0000000 0.0000000 0.0
0.0000000 0.0000000 0.0
0.0000000 0.0000000 0.0
0.0000000 0.0000000 0.0
0.0000000 0.0000000 0.0
0.0000000 0.0000000 0.0
0.0000000 0.0000000 0.0
0.0000000 0.0000000 0.0
0.0000000 0.0000000 0.0
0.0000000 0.0000000 0.0
0.0000000 0.0000000 0.0
0.0000000 0.0000000 0.0
0.0000000 0.0000000 0.0
0.0000000 0.0000000 0.0
0.0000000 0.0000000 0.0
0.0000001 0.0000000 0.0
0.0000000 0.0000000 0.0
-0.0000058 -0.0000105 0.0
0.0000058 -0.0000073 0.0
0.0000163 -0.0000074 0.0
0.0000274 -0.0000071 0.0
0.0000377 -0.0000064 0.0
0.0000462 -0.0000052 0.0
0.0000523 -0.0000037 0.0
0.0000555 -0.0000019 0.0
0.0000552 0.0000000 0.0
0.0000514 0.0000020 0.0
0.0000437 0.0000041 0.0
0.0000322 0.0000062 0.0
0.0000169 0.0000082 0.0
-0.0000024 0.0000103 0.0
-0.0000254 0.0000123 0.0
-0.0000521 0.0000142 0.0
-0.0000825 0.0000161 0.0
-0.0001164 0.0000179 0.0
-0.0001536 0.0000196 0.0
-0.0001941 0.0000212 0.0
-0.0002376 0.0000228 0.0
-0.0002841 0.0000243 0.0
-0.0003334 0.0000257 0.0
-0.0003853 0.0000270 0.0
-0.0004396 0.0000282 0.0
-0.0004964 0.0000294 0.0
-0.0005553 0.0000305 0.0
-0.0006162 0.0000315 0.0
-0.0006791 0.0000324 0.0
-0.0007437 0.0000333 0.0
-0.0008099 0.0000341 0.0
-0.0008777 0.0000348 0.0
-0.0009468 0.0000355 0.0
-0.0010172 0.0000361 0.0
-0.0010887 0.0000367 0.0
-0.0011612 0.0000372 0.0
-0.0012346 0.0000376 0.0
-0.0013088 0.0000380 0.0
-0.0013837 0.0000383 0.0
-0.0014592 0.0000386 0.0
-0.0015352 0.0000388 0.0
-0.0016116 0.0000390 0.0
-0.0016883 0.0000391 0.0
-0.0017652 0.0000392 0.0
-0.0018423 0.0000392 0.0
-0.0019193 0.0000392 0.0
-0.0019964 0.0000392 0.0
-0.0020733 0.0000391 0.0
-0.0021499 0.0000390 0.0
-0.0022263 0.0000388 0.0
-0.0023023 0.0000386 0.0
-0.0023779 0.0000384 0.0
-0.0024529 0.0000381 0.0
-0.0025273 0.0000377 0.0
-0.0026011 0.0000374 0.0
-0.0026740 0.0000370 0.0
-0.0027462 0.0000365 0.0
-0.0028174 0.0000361 0.0
-0.0028876 0.0000355 0.0
-0.0029567 0.0000350 0.0
-0.0030247 0.0000344 0.0
-0.0030914 0.0000337 0.0
-0.0031569 0.0000331 0.0
-0.0032209 0.0000323 0.0
-0.0032835 0.0000316 0.0
-0.0033446 0.0000308 0.0
-0.0034040 0.0000299 0.0
-0.0034617 0.0000291 0.0
-0.0035176 0.0000281 0.0
-0.0035717 0.0000272 0.0
-0.0036239 0.0000262 0.0
-0.0036740 0.0000251 0.0
-0.0037220 0.0000241 0.0
-0.0037679 0.0000229 0.0
-0.0038115 0.0000218 0.0
-0.0038528 0.0000206 0.0
-0.0038918 0.0000193 0.0
-0.0039282 0.0000181 0.0
-0.0039621 0.0000168 0.0
-0.0039934 0.0000154 0.0
-0.0040220 0.0000140 0.0
-0.0040479 0.0000126 0.0
-0.0040709 0.0000112 0.0
-0.0040911 0.0000097 0.0
-0.0041084 0.0000082 0.0
-0.0041227 0.0000067 0.0
-0.0041339 0.0000051 0.0
-0.0041421 0.0000035 0.0
-0.0041472 0.0000019 0.0
-0.0041491 0.0000003 0.0
-0.0041478 -0.0000014 0.0
-0.0041432 -0.0000030 0.0
-0.0041354 -0.0000047 0.0
-0.0041244 -0.0000064 0.0
-0.0041100 -0.0000081 0.0
-0.0040923 -0.0000098 0.0
-0.0040714 -0.0000115 0.0
-0.0040471 -0.0000132 0.0
-0.0040195 -0.0000149 0.0
-0.0039886 -0.0000165 0.0
-0.0039544 -0.0000182 0.0
-0.0039170 -0.0000199 0.0
-0.0038763 -0.0000215 0.0
-0.0038325 -0.0000231 0.0
-0.0037856 -0.0000247 0.0
-0.0037355 -0.0000263 0.0
-0.0036825 -0.0000279 0.0
-0.0036264 -0.0000294 0.0
-0.0035675 -0.0000308 0.0
-0.0035058 -0.0000323 0.0
-0.0034414 -0.0000336 0.0
-0.0033743 -0.0000350 0.0
-0.0033047 -0.0000362 0.0
-0.0032326 -0.0000375 0.0
-0.0031583 -0.0000386 0.0
-0.0030817 -0.0000397 0.0
-0.0030031 -0.0000408 0.0
-0.0029225 -0.0000417 0.0
-0.0028402 -0.0000426 0.0
-0.0027561 -0.0000434 0.0
-0.0026706 -0.0000442 0.0
-0.0025836 -0.0000448 0.0
-0.0024955 -0.0000454 0.0
-0.0024063 -0.0000459 0.0
-0.0023162 -0.0000463 0.0
-0.0022254 -0.0000467 0.0
-0.0021341 -0.0000469 0.0
-0.0020424 -0.0000470 0.0
-0.0019504 -0.0000471 0.0
-0.0018585 -0.0000471 0.0
-0.0017667 -0.0000469 0.0
-0.0016752 -0.0000467 0.0
-0.0015842 -0.0000464 0.0
-0.0014940 -0.0000460 0.0
-0.0014046 -0.0000455 0.0
-0.0013162 -0.0000449 0.0
-0.0012291 -0.0000442 0.0
-0.0011434 -0.0000434 0.0
-0.0010592 -0.0000426 0.0
-0.0009768 -0.0000416 0.0
-0.0008963 -0.0000406 0.0
-0.0008179 -0.0000395 0.0
-0.0007417 -0.0000383 0.0
-0.0006678 -0.0000370 0.0
-0.0005965 -0.0000357 0.0
-0.0005279 -0.0000343 0.0
-0.0004620 -0.0000328 0.0
-0.0003991 -0.0000312 0.0
-0.0003392 -0.0000296 0.0
-0.0002825 -0.0000279 0.0
-0.0002290 -0.0000262 0.0
-0.0001789 -0.0000244 0.0
-0.0001322 -0.0000226 0.0
-0.0000891 -0.0000208 0.0
-0.0000495 -0.0000189 0.0
-0.0000135 -0.0000170 0.0
0.0000188 -0.0000151 0.0
0.0000474 -0.0000131 0.0
0.0000723 -0.0000112 0.0
0.0000935 -0.0000093 0.0
0.0001110 -0.0000074 0.0
0.0001248 -0.0000055 0.0
0.0001351 -0.0000036 0.0
0.0001418 -0.0000018 0.0
0.0001452 -0.0000000 0.0
0.0001453 0.0000017 0.0
0.0001423 0.0000033 0.0
0.0001363 0.0000047 0.0
0.0001278 0.0000061 0.0
0.0001168 0.0000073 0.0
0.0001039 0.0000082 0.0
0.0000894 0.0000089 0.0
0.0000739 0.0000093 0.0
0.0000579 0.0000093 0.0
0.0000422 0.0000088 0.0
0.0000276 0.0000078 0.0
0.0000153 0.0000061 0.0
0.0000061 0.0000036 0.0
0.0000010 0.0000010 0.0
0.0000000 0.0000000 0.0
0.0000000 0.0000000 0.0
0.0000025 -0.0000123 0.0
0.0000132 -0.0000189 0.0
0.0000282 -0.0000216 0.0
0.0000442 -0.0000213 0.0
0.0000588 -0.0000189 0.0
0.0000703 -0.0000147 0.0
0.0000773 -0.0000092 0.0
0.0000789 -0.0000029 0.0
0.0000743 0.0000041 0.0
0.0000631 0.0000115 0.0
0.0000448 0.0000191 0.0
0.0000194 0.0000269 0.0
-0.0000133 0.0000346 0.0
-0.0000533 0.0000423 0.0
-0.0001004 0.0000498 0.0
-0.0001546 0.0000571 0.0
-0.0002156 0.0000642 0.0
-0.0002833 0.0000711 0.0
-0.0003574 0.0000777 0.0
-0.0004377 0.0000840 0.0
-0.0005240 0.0000900 0.0
-0.0006159 0.0000958 0.0
-0.0007131 0.0001012 0.0
-0.0008155 0.0001063 0.0
-0.0009226 0.0001111 0.0
-0.0010343 0.0001156 0.0
-0.0011502 0.0001199 0.0
-0.0012701 0.0001238 0.0
-0.0013937 0.0001275 0.0
-0.0015207 0.0001309 0.0
-0.0016509 0.0001340 0.0
-0.0017841 0.0001369 0.0
-0.0019199 0.0001395 0.0
-0.0020582 0.0001419 0.0
-0.0021987 0.0001440 0.0
-0.0023412 0.0001460 0.0
-0.0024855 0.0001477 0.0
-0.0026314 0.0001491 0.0
-0.0027786 0.0001504 0.0
-0.0029269 0.0001515 0.0
-0.0030763 0.0001524 0.0
-0.0032264 0.0001531 0.0
-0.0033771 0.0001536 0.0
-0.0035282 0.0001540 0.0
-0.0036795 0.0001541 0.0
-0.0038310 0.0001541 0.0
-0.0039823 0.0001539 0.0
-0.0041334 0.0001536 0.0
-0.0042840 0.0001531 0.0
-0.0044340 0.0001524 0.0
-0.0045833 0.0001516 0.0
-0.0047317 0.0001506 0.0
-0.0048790 0.0001495 0.0
-0.0050251 0.0001482 0.0
-0.0051699 0.0001467 0.0
-0.0053131 0.0001451 0.0
-0.0054546 0.0001433 0.0
-0.0055943 0.0001414 0.0
-0.0057321 0.0001393 0.0
-0.0058677 0.0001371 0.0
-0.0060010 0.0001347 0.0
-0.0061318 0.0001322 0.0
-0.0062601 0.0001295 0.0
-0.0063856 0.0001267 0.0
-0.0065082 0.0001236 0.0
-0.0066277 0.0001205 0.0
-0.0067441 0.0001172 0.0
-0.0068570 0.0001137 0.0
-0.0069665 0.0001100 0.0
-0.0070722 0.0001062 0.0
-0.0071742 0.0001023 0.0
-0.0072721 0.0000982 0.0
-0.0073660 0.0000939 0.0
-0.0074555 0.0000895 0.0
-0.0075407 0.0000849 0.0
-0.0076212 0.0000802 0.0
-0.0076970 0.0000754 0.0
-0.0077680 0.0000703 0.0
-0.0078340 0.0000652 0.0
-0.0078948 0.0000599 0.0
-0.0079504 0.0000545 0.0
-0.0080006 0.0000489 0.0
-0.0080453 0.0000433 0.0
-0.0080844 0.0000375 0.0
-0.0081177 0.0000316 0.0
-0.0081452 0.0000256 0.0
-0.0081667 0.0000195 0.0
-0.0081823 0.0000132 0.0
-0.0081917 0.0000070 0.0
-0.0081949 0.0000006 0.0
-0.0081919 -0.0000058 0.0
-0.0081825 -0.0000123 0.0
-0.0081668 -0.0000189 0.0
-0.0081447 -0.0000254 0.0
-0.0081161 -0.0000320 0.0
-0.0080812 -0.0000386 0.0
-0.0080397 -0.0000453 0.0
-0.0079918 -0.0000519 0.0
-0.0079374 -0.0000585 0.0
-0.0078767 -0.0000651 0.0
-0.0078095 -0.0000716 0.0
-0.0077360 -0.0000780 0.0
-0.0076563 -0.0000844 0.0
-0.0075703 -0.0000908 0.0
-0.0074783 -0.0000970 0.0
-0.0073803 -0.0001031 0.0
-0.0072763 -0.0001091 0.0
-0.0071667 -0.0001149 0.0
-0.0070514 -0.0001206 0.0
-0.0069306 -0.0001262 0.0
-0.0068046 -0.0001315 0.0
-0.0066734 -0.0001367 0.0
-0.0065374 -0.0001416 0.0
-0.0063966 -0.0001464 0.0
-0.0062513 -0.0001509 0.0
-0.0061018 -0.0001552 0.0
-0.0059482 -0.0001592 0.0
-0.0057908 -0.0001629 0.0
-0.0056300 -0.0001664 0.0
-0.0054659 -0.0001696 0.0
-0.0052989 -0.0001725 0.0
-0.0051292 -0.0001751 0.0
-0.0049571 -0.0001773 0.0
-0.0047830 -0.0001793 0.0
-0.0046072 -0.0001809 0.0
-0.0044300 -0.0001821 0.0
-0.0042517 -0.0001831 0.0
-0.0040726 -0.0001836 0.0
-0.0038932 -0.0001839 0.0
-0.0037137 -0.0001837 0.0
-0.0035344 -0.0001833 0.0
-0.0033558 -0.0001824 0.0
-0.0031782 -0.0001812 0.0
-0.0030019 -0.0001797 0.0
-0.0028272 -0.0001777 0.0
-0.0026546 -0.0001755 0.0
-0.0024843 -0.0001728 0.0
-0.0023167 -0.0001699 0.0
-0.0021522 -0.0001666 0.0
-0.0019909 -0.0001629 0.0
-0.0018333 -0.0001589 0.0
-0.0016798 -0.0001546 0.0
-0.0015304 -0.0001500 0.0
-0.0013857 -0.0001451 0.0
-0.0012458 -0.0001400 0.0
-0.0011110 -0.0001345 0.0
-0.0009816 -0.0001288 0.0
-0.0008578 -0.0001228 0.0
-0.0007399 -0.0001166 0.0
-0.0006280 -0.0001102 0.0
-0.0005224 -0.0001036 0.0
-0.0004232 -0.0000968 0.0
-0.0003307 -0.0000898 0.0
-0.0002449 -0.0000827 0.0
-0.0001659 -0.0000755 0.0
-0.0000939 -0.0000682 0.0
-0.0000289 -0.0000609 0.0
0.0000290 -0.0000535 0.0
0.0000798 -0.0000461 0.0
0.0001235 -0.0000387 0.0
0.0001602 -0.0000313 0.0
0.0001899 -0.0000241 0.0
0.0002128 -0.0000170 0.0
0.0002290 -0.0000101 0.0
0.0002388 -0.0000034 0.0
0.0002423 0.0000029 0.0
0.0002400 0.0000089 0.0
0.0002322 0.0000145 0.0
0.0002195 0.0000195 0.0
0.0002022 0.0000239 0.0
0.0001813 0.0000274 0.0
0.0001573 0.0000301 0.0
0.0001313 0.0000316 0.0
0.0001044 0.0000317 0.0
0.0000777 0.0000302 0.0
0.0000528 0.0000269 0.0
0.0000311 0.0000216 0.0
0.0000143 0.0000143 0.0
0.0000036 0.0000061 0.0
0.0000000 0.0000000 0.0
0.0000000 0.0000000 0.0
0.0000052 -0.0000205 0.0
0.0000179 -0.0000331 0.0
0.0000344 -0.0000383 0.0
0.0000513 -0.0000377 0.0
0.0000659 -0.0000325 0.0
0.0000760 -0.0000237 0.0
0.0000797 -0.0000123 0.0
0.0000758 0.0000011 0.0
0.0000633 0.0000159 0.0
0.0000415 0.0000315 0.0
0.0000098 0.0000478 0.0
-0.0000319 0.0000643 0.0
-0.0000838 0.0000809 0.0
-0.0001460 0.0000973 0.0
-0.0002184 0.0001135 0.0
-0.0003008 0.0001294 0.0
-0.0003929 0.0001448 0.0
-0.0004946 0.0001597 0.0
-0.0006056 0.0001740 0.0
-0.0007254 0.0001878 0.0
-0.0008537 0.0002009 0.0
-0.0009901 0.0002134 0.0
-0.0011343 0.0002253 0.0
-0.0012859 0.0002365 0.0
-0.0014445 0.0002471 0.0
-0.0016096 0.0002570 0.0
-0.0017809 0.0002663 0.0
-0.0019580 0.0002750 0.0
-0.0021405 0.0002831 0.0
-0.0023280 0.0002906 0.0
-0.0025201 0.0002975 0.0
-0.0027166 0.0003038 0.0
-0.0029170 0.0003096 0.0
-0.0031210 0.0003149 0.0
-0.0033282 0.0003197 0.0
-0.0035383 0.0003239 0.0
-0.0037511 0.0003277 0.0
-0.0039662 0.0003310 0.0
-0.0041832 0.0003339 0.0
-0.0044020 0.0003363 0.0
-0.0046222 0.0003382 0.0
-0.0048435 0.0003398 0.0
-0.0050657 0.0003409 0.0
-0.0052885 0.0003417 0.0
-0.0055116 0.0003420 0.0
-0.0057349 0.0003420 0.0
-0.0059579 0.0003416 0.0
-0.0061806 0.0003408 0.0
-0.0064026 0.0003396 0.0
-0.0066237 0.0003381 0.0
-0.0068437 0.0003363 0.0
-0.0070624 0.0003341 0.0
-0.0072794 0.0003315 0.0
-0.0074946 0.0003286 0.0
-0.0077078 0.0003253 0.0
-0.0079187 0.0003217 0.0
-0.0081271 0.0003178 0.0
-0.0083328 0.0003135 0.0
-0.0085355 0.0003088 0.0
-0.0087350 0.0003039 0.0
-0.0089311 0.0002985 0.0
-0.0091236 0.0002928 0.0
-0.0093122 0.0002868 0.0
-0.0094967 0.0002804 0.0
-0.0096769 0.0002737 0.0
-0.0098526 0.0002667 0.0
-0.0100234 0.0002592 0.0
-0.0101893 0.0002515 0.0
-0.0103500 0.0002434 0.0
-0.0105052 0.0002349 0.0
-0.0106547 0.0002261 0.0
-0.0107984 0.0002169 0.0
-0.0109359 0.0002074 0.0
-0.0110671 0.0001976 0.0
-0.0111917 0.0001875 0.0
-0.0113096 0.0001770 0.0
-0.0114205 0.0001662 0.0
-0.0115243 0.0001550 0.0
-0.0116206 0.0001436 0.0
-0.0117094 0.0001319 0.0
-0.0117905 0.0001198 0.0
-0.0118636 0.0001075 0.0
-0.0119286 0.0000949 0.0
-0.0119853 0.0000821 0.0
-0.0120336 0.0000690 0.0
-0.0120733 0.0000557 0.0
-0.0121043 0.0000422 0.0
-0.0121264 0.0000285 0.0
-0.0121395 0.0000145 0.0
-0.0121436 0.0000005 0.0
-0.0121385 -0.0000137 0.0
-0.0121241 -0.0000281 0.0
-0.0121004 -0.0000425 0.0
-0.0120673 -0.0000570 0.0
-0.0120248 -0.0000716 0.0
-0.0119728 -0.0000862 0.0
-0.0119114 -0.0001008 0.0
-0.0118405 -0.0001154 0.0
-0.0117602 -0.0001300 0.0
-0.0116706 -0.0001445 0.0
-0.0115716 -0.0001588 0.0
-0.0114633 -0.0001731 0.0
-0.0113459 -0.0001872 0.0
-0.0112195 -0.0002011 0.0
-0.0110842 -0.0002148 0.0
-0.0109401 -0.0002283 0.0
-0.0107874 -0.0002414 0.0
-0.0106263 -0.0002543 0.0
-0.0104570 -0.0002669 0.0
-0.0102798 -0.0002790 0.0
-0.0100949 -0.0002908 0.0
-0.0099025 -0.0003022 0.0
-0.0097029 -0.0003131 0.0
-0.0094964 -0.0003235 0.0
-0.0092834 -0.0003335 0.0
-0.0090642 -0.0003428 0.0
-0.0088391 -0.0003517 0.0
-0.0086086 -0.0003599 0.0
-0.0083729 -0.0003676 0.0
-0.0081324 -0.0003746 0.0
-0.0078877 -0.0003809 0.0
-0.0076391 -0.0003866 0.0
-0.0073871 -0.0003916 0.0
-0.0071321 -0.0003958 0.0
-0.0068745 -0.0003994 0.0
-0.0066149 -0.0004022 0.0
-0.0063537 -0.0004043 0.0
-0.0060914 -0.0004056 0.0
-0.0058285 -0.0004061 0.0
-0.0055655 -0.0004058 0.0
-0.0053028 -0.0004048 0.0
-0.0050411 -0.0004030 0.0
-0.0047807 -0.0004003 0.0
-0.0045222 -0.0003970 0.0
-0.0042662 -0.0003928 0.0
-0.0040130 -0.0003878 0.0
-0.0037631 -0.0003821 0.0
-0.0035172 -0.0003756 0.0
-0.0032756 -0.0003684 0.0
-0.0030388 -0.0003604 0.0
-0.0028073 -0.0003518 0.0
-0.0025815 -0.0003424 0.0
-0.0023619 -0.0003324 0.0
-0.0021489 -0.0003217 0.0
-0.0019429 -0.0003104 0.0
-0.0017442 -0.0002984 0.0
-0.0015533 -0.0002860 0.0
-0.0013705 -0.0002729 0.0
-0.0011962 -0.0002594 0.0
-0.0010306 -0.0002454 0.0
-0.0008740 -0.0002310 0.0
-0.0007267 -0.0002162 0.0
-0.0005889 -0.0002010 0.0
-0.0004608 -0.0001856 0.0
-0.0003426 -0.0001699 0.0
-0.0002345 -0.0001540 0.0
-0.0001364 -0.0001379 0.0
-0.0000485 -0.0001218 0.0
0.0000293 -0.0001057 0.0
0.0000968 -0.0000897 0.0
0.0001543 -0.0000738 0.0
0.0002018 -0.0000581 0.0
0.0002395 -0.0000427 0.0
0.0002676 -0.0000277 0.0
0.0002866 -0.0000133 0.0
0.0002967 0.0000004 0.0
0.0002984 0.0000134 0.0
0.0002923 0.0000253 0.0
0.0002792 0.0000361 0.0
0.0002596 0.0000455 0.0
0.0002347 0.0000532 0.0
0.0002055 0.0000589 0.0
0.0001732 0.0000623 0.0
0.0001393 0.0000629 0.0
0.0001053 0.0000604 0.0
0.0000731 0.0000544 0.0
0.0000445 0.0000446 0.0
0.0000215 0.0000311 0.0
0.0000060 0.0000153 0.0
0.0000000 0.0000000 0.0
0.0000000 0.0000000 0.0
0.0000061 -0.0000302 0.0
0.0000192 -0.0000480 0.0
0.0000349 -0.0000550 0.0
0.0000500 -0.0000529 0.0
0.0000612 -0.0000435 0.0
0.0000663 -0.0000284 0.0
0.0000633 -0.0000091 0.0
0.0000506 0.0000135 0.0
0.0000271 0.0000384 0.0
-0.0000081 0.0000649 0.0
-0.0000556 0.0000925 0.0
-0.0001157 0.0001205 0.0
-0.0001888 0.0001487 0.0
-0.0002747 0.0001768 0.0
-0.0003735 0.0002045 0.0
-0.0004850 0.0002317 0.0
-0.0006089 0.0002581 0.0
-0.0007449 0.0002837 0.0
-0.0008926 0.0003084 0.0
-0.0010517 0.0003321 0.0
-0.0012217 0.0003548 0.0
-0.0014021 0.0003764 0.0
-0.0015925 0.0003970 0.0
-0.0017923 0.0004164 0.0
-0.0020012 0.0004348 0.0
-0.0022185 0.0004520 0.0
-0.0024437 0.0004682 0.0
-0.0026765 0.0004834 0.0
-0.0029162 0.0004975 0.0
-0.0031625 0.0005105 0.0
-0.0034148 0.0005226 0.0
-0.0036726 0.0005337 0.0
-0.0039356 0.0005439 0.0
-0.0042032 0.0005531 0.0
-0.0044751 0.0005614 0.0
-0.0047508 0.0005689 0.0
-0.0050298 0.0005755 0.0
-0.0053119 0.0005813 0.0
-0.0055966 0.0005863 0.0
-0.0058835 0.0005905 0.0
-0.0061722 0.0005939 0.0
-0.0064624 0.0005966 0.0
-0.0067537 0.0005986 0.0
-0.0070458 0.0005999 0.0
-0.0073384 0.0006005 0.0
-0.0076310 0.0006004 0.0
-0.0079234 0.0005996 0.0
-0.0082152 0.0005982 0.0
-0.0085062 0.0005962 0.0
-0.0087960 0.0005935 0.0
-0.0090842 0.0005902 0.0
-0.0093707 0.0005863 0.0
-0.0096550 0.0005817 0.0
-0.0099370 0.0005766 0.0
-0.0102161 0.0005708 0.0
-0.0104923 0.0005644 0.0
-0.0107652 0.0005574 0.0
-0.0110344 0.0005498 0.0
-0.0112997 0.0005416 0.0
-0.0115608 0.0005328 0.0
-0.0118173 0.0005233 0.0
-0.0120691 0.0005133 0.0
-0.0123157 0.0005026 0.0
-0.0125569 0.0004914 0.0
-0.0127924 0.0004795 0.0
-0.0130219 0.0004670 0.0
-0.0132452 0.0004539 0.0
-0.0134618 0.0004402 0.0
-0.0136715 0.0004259 0.0
-0.0138741 0.0004110 0.0
-0.0140691 0.0003955 0.0
-0.0142564 0.0003793 0.0
-0.0144357 0.0003626 0.0
-0.0146067 0.0003453 0.0
-0.0147690 0.0003275 0.0