# vtk DataFile Version 2.0
Lid Driven Cavity Flow
ASCII
DATASET STRUCTURED_GRID
DIMENSIONS 181 181 1
POINTS 32761 float
0.0000000 0.0000000 0.0
0.0055556 0.0000000 0.0
0.0111111 0.0000000 0.0
0.0166667 0.0000000 0.0
0.0222222 0.0000000 0.0
0.0277778 0.0000000 0.0
0.0333333 0.0000000 0.0
0.0388889 0.0000000 0.0
0.0444444 0.0000000 0.0
0.0500000 0.0000000 0.0
0.0555556 0.0000000 0.0
0.0611111 0.0000000 0.0
0.0666667 0.0000000 0.0
0.0722222 0.0000000 0.0
0.0777778 0.0000000 0.0
0.0833333 0.0000000 0.0
0.0888889 0.0000000 0.0
0.0944444 0.0000000 0.0
0.1000000 0.0000000 0.0
0.1055556 0.0000000 0.0
0.1111111 0.0000000 0.0
0.1166667 0.0000000 0.0
0.1222222 0.0000000 0.0
0.1277778 0.0000000 0.0
0.1333333 0.0000000 0.0
0.1388889 0.0000000 0.0
0.1444444 0.0000000 0.0
0.1500000 0.0000000 0.0
0.1555556 0.0000000 0.0
0.1611111 0.0000000 0.0
0.1666667 0.0000000 0.0
0.1722222 0.0000000 0.0
0.1777778 0.0000000 0.0
0.1833333 0.0000000 0.0
0.1888889 0.0000000 0.0
0.1944444 0.0000000 0.0
0.2000000 0.0000000 0.0
0.2055556 0.0000000 0.0
0.2111111 0.0000000 0.0
0.2166667 0.0000000 0.0
0.2222222 0.0000000 0.0
0.2277778 0.0000000 0.0
0.2333333 0.0000000 0.0
0.2388889 0.0000000 0.0
0.2444444 0.0000000 0.0
0.2500000 0.0000000 0.0
0.2555556 0.0000000 0.0
0.2611111 0.0000000 0.0
0.2666667 0.0000000 0.0
0.2722222 0.0000000 0.0
0.2777778 0.0000000 0.0
0.2833333 0.0000000 0.0
0.2888889 0.0000000 0.0
0.2944444 0.0000000 0.0
0.3000000 0.0000000 0.0
0.3055556 0.0000000 0.0
0.3111111 0.0000000 0.0
0.3166667 0.0000000 0.0
0.3222222 0.0000000 0.0
0.3277778 0.0000000 0.0
0.3333333 0.0000000 0.0
0.3388889 0.0000000 0.0
0.3444444 0.0000000 0.0
0.3500000 0.0000000 0.0
0.3555556 0.0000000 0.0
0.3611111 0.0000000 0.0
0.3666667 0.0000000 0.0
0.3722222 0.0000000 0.0
0.3777778 0.0000000 0.0
0.3833333 0.0000000 0.0
0.3888889 0.0000000 0.0
0.3944444 0.0000000 0.0
0.4000000 0.0000000 0.0
0.4055556 0.0000000 0.0
0.4111111 0.0000000 0.0
0.4166667 0.0000000 0.0
0.4222222 0.0000000 0.0
0.4277778 0.0000000 0.0
0.4333333 0.0000000 0.0
0.4388889 0.0000000 0.0
0.4444444 0.0000000 0.0
0.4500000 0.0000000 0.0
0.4555556 0.0000000 0.0
0.4611111 0.0000000 0.0
0.4666667 0.0000000 0.0
0.4722222 0.0000000 0.0
0.4777778 0.0000000 0.0
0.4833333 0.0000000 0.0
0.4888889 0.0000000 0.0
0.4944444 0.0000000 0.0
0.5000000 0.0000000 0.0
0.5055556 0.0000000 0.0
0.5111111 0.0000000 0.0
0.5166667 0.0000000 0.0
0.5222222 0.0000000 0.0
0.5277778 0.0000000 0.0
0.5333333 0.0000000 0.0
0.5388889 0.0000000 0.0
0.5444444 0.0000000 0.0
0.5500000 0.0000000 0.0
0.5555556 0.0000000 0.0
0.5611111 0.0000000 0.0
0.5666667 0.0000000 0.0
0.5722222 0.0000000 0.0
0.5777778 0.0000000 0.0
0.5833333 0.0000000 0.0
0.5888889 0.0000000 0.0
0.5944444 0.0000000 0.0
0.6000000 0.0000000 0.0
0.6055556 0.0000000 0.0
0.6111111 0.0000000 0.0
0.6166667 0.0000000 0.0
0.6222222 0.0000000 0.0
0.6277778 0.0000000 0.0
0.6333333 0.0000000 0.0
0.6388889 0.0000000 0.0
0.6444444 0.0000000 0.0
0.6500000 0.0000000 0.0
0.6555556 0.0000000 0.0
0.6611111 0.0000000 0.0
0.6666667 0.0000000 0.0
0.6722222 0.0000000 0.0
0.6777778 0.0000000 0.0
0.6833333 0.0000000 0.0
0.6888889 0.0000000 0.0
0.6944444 0.0000000 0.0
0.7000000 0.0000000 0.0
0.7055556 0.0000000 0.0
0.7111111 0.0000000 0.0
0.7166667 0.0000000 0.0
0.7222222 0.0000000 0.0
0.7277778 0.0000000 0.0
0.7333333 0.0000000 0.0
0.7388889 0.0000000 0.0
0.7444444 0.0000000 0.0
0.7500000 0.0000000 0.0
0.7555556 0.0000000 0.0
0.7611111 0.0000000 0.0
0.7666667 0.0000000 0.0
0.7722222 0.0000000 0.0
0.7777778 0.0000000 0.0
0.7833333 0.0000000 0.0
0.7888889 0.0000000 0.0
0.7944444 0.0000000 0.0
0.8000000 0.0000000 0.0
0.8055556 0.0000000 0.0
0.8111111 0.0000000 0.0
0.8166667 0.0000000 0.0
0.8222222 0.0000000 0.0
0.8277778 0.0000000 0.0
0.8333333 0.0000000 0.0
0.8388889 0.0000000 0.0
0.8444444 0.0000000 0.0
0.8500000 0.0000000 0.0
0.8555556 0.0000000 0.0
0.8611111 0.0000000 0.0
0.8666667 0.0000000 0.0
0.8722222 0.0000000 0.0
0.8777778 0.0000000 0.0
0.8833333 0.0000000 0.0
0.8888889 0.0000000 0.0
0.8944444 0.0000000 0.0
0.9000000 0.0000000 0.0
0.9055556 0.0000000 0.0
0.9111111 0.0000000 0.0
0.9166667 0.0000000 0.0
0.9222222 0.0000000 0.0
0.9277778 0.0000000 0.0
0.9333333 0.0000000 0.0
0.9388889 0.0000000 0.0
0.9444444 0.0000000 0.0
0.9500000 0.0000000 0.0
0.9555556 0.0000000 0.0
0.9611111 0.0000000 0.0
0.9666667 0.0000000 0.0
0.9722222 0.0000000 0.0
0.9777778 0.0000000 0.0
0.9833333 0.0000000 0.0
0.9888889 0.0000000 0.0
0.9944444 0.0000000 0.0
1.0000000 0.0000000 0.0
0.0000000 0.0055556 0.0
0.0055556 0.0055556 0.0
0.0111111 0.0055556 0.0
0.0166667 0.0055556 0.0
0.0222222 0.0055556 0.0
0.0277778 0.0055556 0.0
0.0333333 0.0055556 0.0
0.0388889 0.0055556 0.0
0.0444444 0.0055556 0.0
0.0500000 0.0055556 0.0
0.0555556 0.0055556 0.0
0.0611111 0.0055556 0.0
0.0666667 0.0055556 0.0
0.0722222 0.0055556 0.0
0.0777778 0.0055556 0.0
0.0833333 0.0055556 0.0
0.0888889 0.0055556 0.0
0.0944444 0.0055556 0.0
0.1000000 0.0055556 0.0
0.1055556 0.0055556 0.0
0.1111111 0.0055556 0.0
0.1166667 0.0055556 0.0
0.1222222 0.0055556 0.0
0.1277778 0.0055556 0.0
0.1333333 0.0055556 0.0
0.1388889 0.0055556 0.0
0.1444444 0.0055556 0.0
0.1500000 0.0055556 0.0
0.1555556 0.0055556 0.0
0.1611111 0.0055556 0.0
0.1666667 0.0055556 0.0
0.1722222 0.0055556 0.0
0.1777778 0.0055556 0.0
0.1833333 0.0055556 0.0
0.1888889 0.0055556 0.0
0.1944444 0.0055556 0.0
0.2000000 0.0055556 0.0
0.2055556 0.0055556 0.0
0.2111111 0.0055556 0.0
0.2166667 0.0055556 0.0
0.2222222 0.0055556 0.0
0.2277778 0.0055556 0.0
0.2333333 0.0055556 0.0
0.2388889 0.0055556 0.0
0.2444444 0.0055556 0.0
0.2500000 0.0055556 0.0
0.2555556 0.0055556 0.0
0.2611111 0.0055556 0.0
0.2666667 0.0055556 0.0
0.2722222 0.0055556 0.0
0.2777778 0.0055556 0.0
0.2833333 0.0055556 0.0
0.2888889 0.0055556 0.0
0.2944444 0.0055556 0.0
0.3000000 0.0055556 0.0
0.3055556 0.0055556 0.0
0.3111111 0.0055556 0.0
0.3166667 0.0055556 0.0
0.3222222 0.0055556 0.0
0.3277778 0.0055556 0.0
0.3333333 0.0055556 0.0
0.3388889 0.0055556 0.0
0.3444444 0.0055556 0.0
0.3500000 0.0055556 0.0
0.3555556 0.0055556 0.0
0.3611111 0.0055556 0.0
0.3666667 0.0055556 0.0
0.3722222 0.0055556 0.0
0.3777778 0.0055556 0.0
0.3833333 0.0055556 0.0
0.3888889 0.0055556 0.0
0.3944444 0.0055556 0.0
0.4000000 0.0055556 0.0
0.4055556 0.0055556 0.0
0.4111111 0.0055556 0.0
0.4166667 0.0055556 0.0
0.4222222 0.0055556 0.0
0.4277778 0.0055556 0.0
0.4333333 0.0055556 0.0
0.4388889 0.0055556 0.0
0.4444444 0.0055556 0.0
0.4500000 0.0055556 0.0
0.4555556 0.0055556 0.0
0.4611111 0.0055556 0.0
0.4666667 0.0055556 0.0
0.4722222 0.0055556 0.0
0.4777778 0.0055556 0.0
0.4833333 0.0055556 0.0
0.4888889 0.0055556 0.0
0.4944444 0.0055556 0.0
0.5000000 0.0055556 0.0
0.5055556 0.0055556 0.0
0.5111111 0.0055556 0.0
0.5166667 0.0055556 0.0
0.5222222 0.0055556 0.0
0.5277778 0.0055556 0.0
0.5333333 0.0055556 0.0
0.5388889 0.0055556 0.0
0.5444444 0.0055556 0.0
0.5500000 0.0055556 0.0
0.5555556 0.0055556 0.0
0.5611111 0.0055556 0.0
0.5666667 0.0055556 0.0
0.5722222 0.0055556 0.0
0.5777778 0.0055556 0.0
0.5833333 0.0055556 0.0
0.5888889 0.0055556 0.0
0.5944444 0.0055556 0.0
0.6000000 0.0055556 0.0
0.6055556 0.0055556 0.0
0.6111111 0.0055556 0.0
0.6166667 0.0055556 0.0
0.6222222 0.0055556 0.0
0.6277778 0.0055556 0.0
0.6333333 0.0055556 0.0
0.6388889 0.0055556 0.0
0.6444444 0.0055556 0.0
0.6500000 0.0055556 0.0
0.6555556 0.0055556 0.0
0.6611111 0.0055556 0.0
0.6666667 0.0055556 0.0
0.6722222 0.0055556 0.0
0.6777778 0.0055556 0.0
0.6833333 0.0055556 0.0
0.6888889 0.0055556 0.0
0.6944444 0.0055556 0.0
0.7000000 0.0055556 0.0
0.7055556 0.0055556 0.0
0.7111111 0.0055556 0.0
0.7166667 0.0055556 0.0
0.7222222 0.0055556 0.0
0.7277778 0.0055556 0.0
0.7333333 0.0055556 0.0
0.7388889 0.0055556 0.0
0.7444444 0.0055556 0.0
0.7500000 0.0055556 0.0
0.7555556 0.0055556 0.0
0.7611111 0.0055556 0.0
0.7666667 0.0055556 0.0
0.7722222 0.0055556 0.0
0.7777778 0.0055556 0.0
0.7833333 0.0055556 0.0
0.7888889 0.0055556 0.0
0.7944444 0.0055556 0.0
0.8000000 0.0055556 0.0
0.8055556 0.0055556 0.0
0.8111111 0.0055556 0.0
0.8166667 0.0055556 0.0
0.8222222 0.0055556 0.0
0.8277778 0.0055556 0.0
0.8333333 0.0055556 0.0
0.8388889 0.0055556 0.0
0.8444444 0.0055556 0.0
0.8500000 0.0055556 0.0
0.8555556 0.0055556 0.0
0.8611111 0.0055556 0.0
0.8666667 0.0055556 0.0
0.8722222 0.0055556 0.0
0.8777778 0.0055556 0.0
0.8833333 0.0055556 0.0
0.8888889 0.0055556 0.0
0.8944444 0.0055556 0.0
0.9000000 0.0055556 0.0
0.9055556 0.0055556 0.0
0.9111111 0.0055556 0.0
0.9166667 0.0055556 0.0
0.9222222 0.0055556 0.0
0.9277778 0.0055556 0.0
0.9333333 0.0055556 0.0
0.9388889 0.0055556 0.0
0.9444444 0.0055556 0.0
0.9500000 0.0055556 0.0
0.9555556 0.0055556 0.0
0.9611111 0.0055556 0.0
0.9666667 0.0055556 0.0
0.9722222 0.0055556 0.0
0.9777778 0.0055556 0.0
0.9833333 0.0055556 0.0
0.9888889 0.0055556 0.0
0.9944444 0.0055556 0.0
1.0000000 0.0055556 0.0
0.0000000 0.0111111 0.0
0.0055556 0.0111111 0.0
0.0111111 0.0111111 0.0
0.0166667 0.0111111 0.0
0.0222222 0.0111111 0.0
0.0277778 0.0111111 0.0
0.0333333 0.0111111 0.0
0.0388889 0.0111111 0.0
0.0444444 0.0111111 0.0
0.0500000 0.0111111 0.0
0.0555556 0.0111111 0.0
0.0611111 0.0111111 0.0
0.0666667 0.0111111 0.0
0.0722222 0.0111111 0.0
0.0777778 0.0111111 0.0
0.0833333 0.0111111 0.0
0.0888889 0.0111111 0.0
0.0944444 0.0111111 0.0
0.1000000 0.0111111 0.0
0.1055556 0.0111111 0.0
0.1111111 0.0111111 0.0
0.1166667 0.0111111 0.0
0.1222222 0.0111111 0.0
0.1277778 0.0111111 0.0
0.1333333 0.0111111 0.0
0.1388889 0.0111111 0.0
0.1444444 0.0111111 0.0
0.1500000 0.0111111 0.0
0.1555556 0.0111111 0.0
0.1611111 0.0111111 0.0
0.1666667 0.0111111 0.0
0.1722222 0.0111111 0.0
0.1777778 0.0111111 0.0
0.1833333 0.0111111 0.0
0.1888889 0.0111111 0.0
0.1944444 0.0111111 0.0
0.2000000 0.0111111 0.0
0.2055556 0.0111111 0.0
0.2111111 0.0111111 0.0
0.2166667 0.0111111 0.0
0.2222222 0.0111111 0.0
0.2277778 0.0111111 0.0
0.2333333 0.0111111 0.0
0.2388889 0.0111111 0.0
0.2444444 0.0111111 0.0
0.2500000 0.0111111 0.0
0.2555556 0.0111111 0.0
0.2611111 0.0111111 0.0
0.2666667 0.0111111 0.0
[...]
POINT_DATA 32761
VECTORS velocity float
0.0000000 0.0000000 0.0
0.0000000 0.0000000 0.0
0.0000000 0.0000000 0.0
0.0000000 0.0000000 0.0
0.0000000 0.0000000 0.0
0.0000000 0.0000000 0.0
0.0000000 0.0000000 0.0
0.0000000 0.0000000 0.0
0.0000000 0.0000000 0.0
0.0000000 0.0000000 0.0
0.0000000 0.0000000 0.0
0.0000000 0.0000000 0.0
0.0000000 0.0000000 0.0
0.0000000 0.0000000 0.0
0.0000000 0.0000000 0.0
0.0000000 0.0000000 0.0
0.0000000 0.0000000 0.0
0.0000000 0.0000000 0.0
0.0000000 0.0000000 0.0
0.0000000 0.0000000 0.0
0.0000000 0.0000000 0.0
0.0000000 0.0000000 0.0
0.0000000 0.0000000 0.0
0.0000000 0.0000000 0.0
0.0000000 0.0000000 0.0
0.0000000 0.0000000 0.0
0.0000000 0.0000000 0.0
0.0000000 0.0000000 0.0
0.0000000 0.0000000 0.0
0.0000000 0.0000000 0.0
0.0000000 0.0000000 0.0
0.0000000 0.0000000 0.0
0.0000000 0.0000000 0.0
0.0000000 0.0000000 0.0
0.0000000 0.0000000 0.0
0.0000000 0.0000000 0.0
0.0000000 0.0000000 0.0
0.0000000 0.0000000 0.0
0.0000000 0.0000000 0.0
0.0000000 0.0000000 0.0
0.0000000 0.0000000 0.0
0.0000000 0.0000000 0.0
0.0000000 0.0000000 0.0
0.0000000 0.0000000 0.0
0.0000000 0.0000000 0.0
0.0000000 0.0000000 0.0
0.0000000 0.0000000 0.0
0.0000000 0.0000000 0.0
0.0000000 0.0000000 0.0
0.0000000 0.0000000 0.0
0.0000000 0.0000000 0.0
0.0000000 0.0000000 0.0
0.0000000 0.0000000 0.0
0.0000000 0.0000000 0.0
0.0000000 0.0000000 0.0
0.0000000 0.0000000 0.0
0.0000000 0.0000000 0.0
0.0000000 0.0000000 0.0
0.0000000 0.0000000 0.0
0.0000000 0.0000000 0.0
0.0000000 0.0000000 0.0
0.0000000 0.0000000 0.0
0.0000000 0.0000000 0.0
0.0000000 0.0000000 0.0
0.0000000 0.0000000 0.0
0.0000000 0.0000000 0.0
0.0000000 0.0000000 0.0
0.0000000 0.0000000 0.0
0.0000000 0.0000000 0.0
0.0000000 0.0000000 0.0
0.0000000 0.0000000 0.0
0.0000000 0.0000000 0.0
0.0000000 0.0000000 0.0
0.0000000 0.0000000 0.0
0.0000000 0.0000000 0.0
0.0000000 0.0000000 0.0
0.0000000 0.0000000 0.0
0.0000000 0.0000000 0.0
0.0000000 0.0000000 0.0
0.0000000 0.0000000 0.0
0.0000000 0.0000000 0.0
0.0000000 0.0000000 0.0
0.0000000 0.0000000 0.0
0.0000000 0.0000000 0.0
0.0000000 0.0000000 0.0
0.0000000 0.0000000 0.0
0.0000000 0.0000000 0.0
0.0000000 0.0000000 0.0
0.0000000 0.0000000 0.0
0.0000000 0.0000000 0.0
0.0000000 0.0000000 0.0
0.0000000 0.0000000 0.0
0.0000000 0.0000000 0.0
0.0000000 0.0000000 0.0
0.0000000 0.0000000 0.0
0.0000000 0.0000000 0.0
0.0000000 0.0000000 0.0
0.0000000 0.0000000 0.0
0.0000000 0.0000000 0.0
0.0000000 0.0000000 0.0
0.0000000 0.0000000 0.0
0.0000000 0.0000000 0.0
0.0000000 0.0000000 0.0
0.0000000 0.0000000 0.0
0.0000000 0.0000000 0.0
0.0000000 0.0000000 0.0
0.0000000 0.0000000 0.0
0.0000000 0.0000000 0.0
0.0000000 0.0000000 0.0
0.0000000 0.0000000 0.0
0.0000000 0.0000000 0.0
0.0000000 0.0000000 0.0
0.0000000 0.0000000 0.0
0.0000000 0.0000000 0.0
0.0000000 0.0000000 0.0
0.0000000 0.0000000 0.0
0.0000000 0.0000000 0.0
0.0000000 0.0000000 0.0
0.0000000 0.0000000 0.0
0.0000000 0.0000000 0.0
0.0000000 0.0000000 0.0
0.0000000 0.0000000 0.0
0.0000000 0.0000000 0.0
0.0000000 0.0000000 0.0
0.0000000 0.0000000 0.0
0.0000000 0.0000000 0.0
0.0000000 0.0000000 0.0
0.0000000 0.0000000 0.0
0.0000000 0.0000000 0.0
0.0000000 0.0000000 0.0
0.0000000 0.0000000 0.0
0.0000000 0.0000000 0.0
0.0000000 0.0000000 0.0
0.0000000 0.0000000 0.0
0.0000000 0.0000000 0.0
0.0000000 0.0000000 0.0
0.0000000 0.0000000 0.0
0.0000000 0.0000000 0.0
0.0000000 0.0000000 0.0
0.0000000 0.0000000 0.0
0.0000000 0.0000000 0.0
0.0000000 0.0000000 0.0
0.0000000 0.0000000 0.0
0.0000000 0.0000000 0.0
0.0000000 0.0000000 0.0
0.0000000 0.0000000 0.0
0.0000000 0.0000000 0.0
0.0000000 0.0000000 0.0
0.0000000 0.0000000 0.0
0.0000000 0.0000000 0.0
0.0000000 0.0000000 0.0
0.0000000 0.0000000 0.0
0.0000000 0.0000000 0.0
0.0000000 0.0000000 0.0
0.0000000 0.0000000 0.0
0.0000000 0.0000000 0.0
0.0000000 0.0000000 0.0
0.0000000 0.0000000 0.0
0.0000000 0.0000000 0.0
0.0000000 0.0000000 0.0
0.0000000 0.0000000 0.0
0.0000000 0.0000000 0.0
0.0000000 0.0000000 0.0
0.0000000 0.0000000 0.0
0.0000000 0.0000000 0.0
0.0000000 0.0000000 0.0
0.0000000 0.0000000 0.0
0.0000000 0.0000000 0.0
0.0000000 0.0000000 0.0
0.0000000 0.0000000 0.0
0.0000000 0.0000000 0.0
0.0000000 0.0000000 0.0
0.0000000 0.0000000 0.0
0.0000000 0.0000000 0.0
0.0000000 0.0000000 0.0
0.0000000 0.0000000 0.0
0.0000000 0.0000000 0.0
0.0000000 0.0000000 0.0
0.0000000 0.0000000 0.0
0.0000000 0.0000000 0.0
0.0000001 0.0000000 0.0
0.0000000 0.0000000 0.0
-0.0009166 -0.0009213 0.0
-0.0003560 -0.0002794 0.0
-0.0002166 -0.0001320 0.0
-0.0001260 -0.0000653 0.0
-0.0000676 -0.0000353 0.0
-0.0000292 -0.0000209 0.0
-0.0000039 -0.0000129 0.0
0.0000120 -0.0000077 0.0
0.0000208 -0.0000039 0.0
0.0000234 -0.0000007 0.0
0.0000206 0.0000022 0.0
0.0000128 0.0000048 0.0
0.0000003 0.0000072 0.0
-0.0000166 0.0000096 0.0
-0.0000378 0.0000117 0.0
-0.0000630 0.0000138 0.0
-0.0000922 0.0000158 0.0
-0.0001250 0.0000177 0.0
-0.0001614 0.0000195 0.0
-0.0002011 0.0000212 0.0
-0.0002440 0.0000229 0.0
-0.0002900 0.0000244 0.0
-0.0003388 0.0000258 0.0
-0.0003903 0.0000272 0.0
-0.0004444 0.0000284 0.0
-0.0005008 0.0000296 0.0
-0.0005595 0.0000307 0.0
-0.0006202 0.0000318 0.0
-0.0006829 0.0000327 0.0
-0.0007474 0.0000336 0.0
-0.0008135 0.0000344 0.0
-0.0008812 0.0000352 0.0
-0.0009502 0.0000358 0.0
-0.0010205 0.0000365 0.0
-0.0010920 0.0000370 0.0
-0.0011644 0.0000375 0.0
-0.0012378 0.0000379 0.0
-0.0013120 0.0000383 0.0
-0.0013870 0.0000387 0.0
-0.0014625 0.0000389 0.0
-0.0015385 0.0000392 0.0
-0.0016149 0.0000394 0.0
-0.0016916 0.0000395 0.0
-0.0017685 0.0000396 0.0
-0.0018456 0.0000396 0.0
-0.0019227 0.0000396 0.0
-0.0019998 0.0000396 0.0
-0.0020767 0.0000395 0.0
-0.0021535 0.0000394 0.0
-0.0022299 0.0000392 0.0
-0.0023060 0.0000390 0.0
-0.0023816 0.0000388 0.0
-0.0024567 0.0000385 0.0
-0.0025311 0.0000382 0.0
-0.0026049 0.0000378 0.0
-0.0026779 0.0000374 0.0
-0.0027501 0.0000369 0.0
-0.0028214 0.0000365 0.0
-0.0028917 0.0000359 0.0
-0.0029608 0.0000354 0.0
-0.0030289 0.0000348 0.0
-0.0030957 0.0000341 0.0
-0.0031612 0.0000335 0.0
-0.0032253 0.0000327 0.0
-0.0032880 0.0000320 0.0
-0.0033491 0.0000312 0.0
-0.0034085 0.0000304 0.0
-0.0034663 0.0000295 0.0
-0.0035223 0.0000286 0.0
-0.0035764 0.0000276 0.0
-0.0036286 0.0000266 0.0
-0.0036788 0.0000256 0.0
-0.0037269 0.0000245 0.0
-0.0037728 0.0000234 0.0
-0.0038165 0.0000222 0.0
-0.0038578 0.0000210 0.0
-0.0038967 0.0000198 0.0
-0.0039332 0.0000185 0.0
-0.0039671 0.0000172 0.0
-0.0039984 0.0000158 0.0
-0.0040271 0.0000144 0.0
-0.0040529 0.0000130 0.0
-0.0040760 0.0000116 0.0
-0.0040962 0.0000101 0.0
-0.0041135 0.0000086 0.0
-0.0041278 0.0000071 0.0
-0.0041390 0.0000055 0.0
-0.0041472 0.0000039 0.0
-0.0041523 0.0000023 0.0
-0.0041541 0.0000007 0.0
-0.0041528 -0.0000010 0.0
-0.0041483 -0.0000026 0.0
-0.0041405 -0.0000043 0.0
-0.0041294 -0.0000060 0.0
-0.0041150 -0.0000077 0.0
-0.0040972 -0.0000094 0.0
-0.0040762 -0.0000111 0.0
-0.0040519 -0.0000128 0.0
-0.0040242 -0.0000145 0.0
-0.0039933 -0.0000162 0.0
-0.0039591 -0.0000178 0.0
-0.0039216 -0.0000195 0.0
-0.0038809 -0.0000211 0.0
-0.0038370 -0.0000228 0.0
-0.0037900 -0.0000244 0.0
-0.0037399 -0.0000259 0.0
-0.0036867 -0.0000275 0.0
-0.0036306 -0.0000290 0.0
-0.0035716 -0.0000304 0.0
-0.0035098 -0.0000319 0.0
-0.0034453 -0.0000333 0.0
-0.0033781 -0.0000346 0.0
-0.0033084 -0.0000359 0.0
-0.0032362 -0.0000371 0.0
-0.0031618 -0.0000382 0.0
-0.0030851 -0.0000393 0.0
-0.0030064 -0.0000404 0.0
-0.0029257 -0.0000413 0.0
-0.0028433 -0.0000422 0.0
-0.0027591 -0.0000431 0.0
-0.0026735 -0.0000438 0.0
-0.0025864 -0.0000445 0.0
-0.0024982 -0.0000451 0.0
-0.0024089 -0.0000455 0.0
-0.0023187 -0.0000460 0.0
-0.0022278 -0.0000463 0.0
-0.0021363 -0.0000465 0.0
-0.0020445 -0.0000467 0.0
-0.0019525 -0.0000467 0.0
-0.0018604 -0.0000467 0.0
-0.0017685 -0.0000466 0.0
-0.0016769 -0.0000463 0.0
-0.0015859 -0.0000460 0.0
-0.0014955 -0.0000456 0.0
-0.0014060 -0.0000451 0.0
-0.0013176 -0.0000445 0.0
-0.0012304 -0.0000438 0.0
-0.0011446 -0.0000431 0.0
-0.0010603 -0.0000422 0.0
-0.0009778 -0.0000412 0.0
-0.0008972 -0.0000402 0.0
-0.0008187 -0.0000391 0.0
-0.0007424 -0.0000379 0.0
-0.0006685 -0.0000366 0.0
-0.0005972 -0.0000353 0.0
-0.0005284 -0.0000338 0.0
-0.0004625 -0.0000323 0.0
-0.0003995 -0.0000308 0.0
-0.0003396 -0.0000292 0.0
-0.0002828 -0.0000275 0.0
-0.0002293 -0.0000258 0.0
-0.0001792 -0.0000240 0.0
-0.0001325 -0.0000222 0.0
-0.0000893 -0.0000204 0.0
-0.0000496 -0.0000185 0.0
-0.0000137 -0.0000166 0.0
0.0000187 -0.0000146 0.0
0.0000473 -0.0000127 0.0
0.0000722 -0.0000108 0.0
0.0000934 -0.0000088 0.0
0.0001109 -0.0000069 0.0
0.0001247 -0.0000050 0.0
0.0001350 -0.0000031 0.0
0.0001417 -0.0000013 0.0
0.0001451 0.0000004 0.0
0.0001452 0.0000021 0.0
0.0001421 0.0000037 0.0
0.0001362 0.0000052 0.0
0.0001276 0.0000066 0.0
0.0001167 0.0000077 0.0
0.0001037 0.0000087 0.0
0.0000892 0.0000094 0.0
0.0000736 0.0000098 0.0
0.0000576 0.0000098 0.0
0.0000418 0.0000093 0.0
0.0000273 0.0000083 0.0
0.0000149 0.0000065 0.0
0.0000057 0.0000041 0.0
0.0000007 0.0000013 0.0
0.0000000 0.0000000 0.0
0.0000000 0.0000000 0.0
-0.0002696 -0.0003741 0.0
-0.0003020 -0.0003342 0.0
-0.0002437 -0.0002295 0.0
-0.0001698 -0.0001485 0.0
-0.0001055 -0.0000963 0.0
-0.0000564 -0.0000631 0.0
-0.0000217 -0.0000407 0.0
0.0000000 -0.0000242 0.0
0.0000104 -0.0000108 0.0
0.0000104 0.0000007 0.0
0.0000007 0.0000111 0.0
-0.0000180 0.0000208 0.0
-0.0000453 0.0000300 0.0
-0.0000810 0.0000387 0.0
-0.0001247 0.0000470 0.0
-0.0001760 0.0000549 0.0
-0.0002346 0.0000625 0.0
-0.0003003 0.0000698 0.0
-0.0003728 0.0000767 0.0
-0.0004517 0.0000832 0.0
-0.0005367 0.0000894 0.0
-0.0006276 0.0000953 0.0
-0.0007240 0.0001009 0.0
-0.0008256 0.0001061 0.0
-0.0009321 0.0001111 0.0
-0.0010432 0.0001157 0.0
-0.0011586 0.0001200 0.0
-0.0012781 0.0001240 0.0
-0.0014014 0.0001277 0.0
-0.0015282 0.0001312 0.0
-0.0016581 0.0001343 0.0
-0.0017911 0.0001372 0.0
-0.0019268 0.0001399 0.0
-0.0020649 0.0001423 0.0
-0.0022053 0.0001445 0.0
-0.0023478 0.0001464 0.0
-0.0024920 0.0001482 0.0
-0.0026378 0.0001497 0.0
-0.0027850 0.0001510 0.0
-0.0029334 0.0001521 0.0
-0.0030827 0.0001530 0.0
-0.0032329 0.0001537 0.0
-0.0033836 0.0001542 0.0
-0.0035348 0.0001546 0.0
-0.0036862 0.0001548 0.0
-0.0038377 0.0001548 0.0
-0.0039891 0.0001546 0.0
-0.0041402 0.0001542 0.0
-0.0042910 0.0001537 0.0
-0.0044411 0.0001531 0.0
-0.0045905 0.0001523 0.0
-0.0047390 0.0001513 0.0
-0.0048864 0.0001501 0.0
-0.0050326 0.0001488 0.0
-0.0051775 0.0001474 0.0
-0.0053208 0.0001458 0.0
-0.0054625 0.0001440 0.0
-0.0056023 0.0001421 0.0
-0.0057401 0.0001400 0.0
-0.0058758 0.0001378 0.0
-0.0060093 0.0001354 0.0
-0.0061402 0.0001329 0.0
-0.0062686 0.0001302 0.0
-0.0063942 0.0001274 0.0
-0.0065169 0.0001243 0.0
-0.0066366 0.0001212 0.0
-0.0067530 0.0001179 0.0
-0.0068661 0.0001144 0.0
-0.0069756 0.0001107 0.0
-0.0070815 0.0001069 0.0
-0.0071835 0.0001030 0.0
-0.0072816 0.0000989 0.0
-0.0073755 0.0000946 0.0
-0.0074651 0.0000902 0.0
-0.0075503 0.0000856 0.0
-0.0076309 0.0000809 0.0
-0.0077068 0.0000760 0.0
-0.0077778 0.0000710 0.0
-0.0078438 0.0000658 0.0
-0.0079047 0.0000606 0.0
-0.0079603 0.0000551 0.0
-0.0080106 0.0000496 0.0
-0.0080553 0.0000439 0.0
-0.0080943 0.0000381 0.0
-0.0081277 0.0000322 0.0
-0.0081552 0.0000262 0.0
-0.0081767 0.0000201 0.0
-0.0081922 0.0000138 0.0
-0.0082016 0.0000076 0.0
-0.0082048 0.0000012 0.0
-0.0082017 -0.0000052 0.0
-0.0081923 -0.0000117 0.0
-0.0081766 -0.0000183 0.0
-0.0081544 -0.0000249 0.0
-0.0081258 -0.0000315 0.0
-0.0080907 -0.0000381 0.0
-0.0080492 -0.0000447 0.0
-0.0080012 -0.0000514 0.0
-0.0079467 -0.0000580 0.0
-0.0078858 -0.0000645 0.0
-0.0078186 -0.0000711 0.0
-0.0077450 -0.0000775 0.0
-0.0076651 -0.0000839 0.0
-0.0075790 -0.0000903 0.0
-0.0074869 -0.0000965 0.0
-0.0073887 -0.0001026 0.0
-0.0072846 -0.0001086 0.0
-0.0071748 -0.0001145 0.0
-0.0070593 -0.0001202 0.0
-0.0069384 -0.0001257 0.0
-0.0068122 -0.0001311 0.0
-0.0066808 -0.0001362 0.0
-0.0065446 -0.0001412 0.0
-0.0064036 -0.0001459 0.0
-0.0062581 -0.0001504 0.0
-0.0061084 -0.0001547 0.0
-0.0059546 -0.0001587 0.0
-0.0057971 -0.0001625 0.0
-0.0056360 -0.0001660 0.0
-0.0054717 -0.0001691 0.0
-0.0053045 -0.0001720 0.0
-0.0051346 -0.0001746 0.0
-0.0049623 -0.0001769 0.0
-0.0047880 -0.0001788 0.0
-0.0046120 -0.0001804 0.0
-0.0044346 -0.0001817 0.0
-0.0042561 -0.0001826 0.0
-0.0040768 -0.0001832 0.0
-0.0038971 -0.0001834 0.0
-0.0037174 -0.0001833 0.0
-0.0035380 -0.0001828 0.0
-0.0033592 -0.0001819 0.0
-0.0031814 -0.0001807 0.0
-0.0030049 -0.0001792 0.0
-0.0028300 -0.0001773 0.0
-0.0026572 -0.0001750 0.0
-0.0024868 -0.0001723 0.0
-0.0023190 -0.0001694 0.0
-0.0021542 -0.0001660 0.0
-0.0019928 -0.0001624 0.0
-0.0018351 -0.0001584 0.0
-0.0016814 -0.0001541 0.0
-0.0015319 -0.0001495 0.0
-0.0013870 -0.0001446 0.0
-0.0012470 -0.0001394 0.0
-0.0011121 -0.0001339 0.0
-0.0009826 -0.0001282 0.0
-0.0008587 -0.0001222 0.0
-0.0007406 -0.0001160 0.0
-0.0006287 -0.0001096 0.0
-0.0005230 -0.0001030 0.0
-0.0004237 -0.0000962 0.0
-0.0003311 -0.0000892 0.0
-0.0002452 -0.0000821 0.0
-0.0001662 -0.0000749 0.0
-0.0000942 -0.0000676 0.0
-0.0000291 -0.0000602 0.0
0.0000288 -0.0000528 0.0
0.0000796 -0.0000454 0.0
0.0001234 -0.0000380 0.0
0.0001601 -0.0000307 0.0
0.0001898 -0.0000234 0.0
0.0002127 -0.0000163 0.0
0.0002289 -0.0000094 0.0
0.0002386 -0.0000027 0.0
0.0002422 0.0000037 0.0
0.0002399 0.0000097 0.0
0.0002320 0.0000152 0.0
0.0002192 0.0000202 0.0
0.0002020 0.0000246 0.0
0.0001809 0.0000282 0.0
0.0001569 0.0000308 0.0
0.0001309 0.0000323 0.0
0.0001039 0.0000324 0.0
0.0000772 0.0000310 0.0
0.0000523 0.0000276 0.0
0.0000306 0.0000223 0.0
0.0000138 0.0000149 0.0
0.0000033 0.0000065 0.0
0.0000000 0.0000000 0.0
0.0000000 0.0000000 0.0
-0.0001194 -0.0002534 0.0
-0.0001900 -0.0003050 0.0
-0.0001911 -0.0002639 0.0
-0.0001564 -0.0002030 0.0
-0.0001124 -0.0001484 0.0
-0.0000728 -0.0001043 0.0
-0.0000434 -0.0000689 0.0
-0.0000263 -0.0000395 0.0
-0.0000219 -0.0000138 0.0
-0.0000304 0.0000094 0.0
-0.0000513 0.0000309 0.0
-0.0000843 0.0000513 0.0
-0.0001293 0.0000707 0.0
-0.0001857 0.0000892 0.0
-0.0002534 0.0001071 0.0
-0.0003318 0.0001242 0.0
-0.0004207 0.0001406 0.0
-0.0005196 0.0001563 0.0
-0.0006282 0.0001713 0.0
-0.0007459 0.0001856 0.0
-0.0008725 0.0001991 0.0
-0.0010075 0.0002120 0.0
-0.0011505 0.0002242 0.0
-0.0013010 0.0002357 0.0
-0.0014586 0.0002465 0.0
-0.0016229 0.0002566 0.0
-0.0017935 0.0002661 0.0
-0.0019700 0.0002749 0.0
-0.0021520 0.0002831 0.0
-0.0023391 0.0002907 0.0
-0.0025309 0.0002977 0.0
-0.0027271 0.0003042 0.0
-0.0029272 0.0003101 0.0
-0.0031310 0.0003154 0.0
-0.0033381 0.0003202 0.0
-0.0035481 0.0003246 0.0
-0.0037608 0.0003284 0.0
-0.0039758 0.0003317 0.0
-0.0041929 0.0003346 0.0
-0.0044116 0.0003371 0.0
-0.0046319 0.0003391 0.0
-0.0048532 0.0003406 0.0
-0.0050755 0.0003418 0.0
-0.0052983 0.0003426 0.0
-0.0055216 0.0003429 0.0
-0.0057449 0.0003429 0.0
-0.0059681 0.0003425 0.0
-0.0061909 0.0003418 0.0
-0.0064130 0.0003406 0.0
-0.0066343 0.0003391 0.0
-0.0068544 0.0003373 0.0
-0.0070732 0.0003351 0.0
-0.0072904 0.0003325 0.0
-0.0075058 0.0003296 0.0
-0.0077191 0.0003264 0.0
-0.0079302 0.0003228 0.0
-0.0081387 0.0003188 0.0
-0.0083446 0.0003145 0.0
-0.0085474 0.0003099 0.0
-0.0087471 0.0003049 0.0
-0.0089434 0.0002996 0.0
-0.0091360 0.0002939 0.0
-0.0093248 0.0002879 0.0
-0.0095095 0.0002815 0.0
-0.0096898 0.0002748 0.0
-0.0098656 0.0002677 0.0
-0.0100367 0.0002603 0.0
-0.0102027 0.0002525 0.0
-0.0103635 0.0002444 0.0
-0.0105188 0.0002359 0.0
-0.0106685 0.0002271 0.0
-0.0108122 0.0002179 0.0
-0.0109499 0.0002084 0.0
-0.0110812 0.0001986 0.0
-0.0112059 0.0001884 0.0
-0.0113239 0.0001779 0.0
-0.0114349 0.0001671 0.0
-0.0115387 0.0001560 0.0
-0.0116351 0.0001445 0.0
-0.0117240 0.0001328 0.0
-0.0118051 0.0001207 0.0
-0.0118782 0.0001084 0.0
-0.0119433 0.0000958 0.0
-0.0120000 0.0000830 0.0
-0.0120483 0.0000699 0.0
-0.0120880 0.0000565 0.0
-0.0121189 0.0000430 0.0
-0.0121410 0.0000293 0.0
-0.0121541 0.0000153 0.0
-0.0121581 0.0000012 0.0
-0.0121529 -0.0000130 0.0
-0.0121385 -0.0000273 0.0
-0.0121147 -0.0000418 0.0
-0.0120815 -0.0000563 0.0
-0.0120389 -0.0000709 0.0
-0.0119868 -0.0000855 0.0
-0.0119253 -0.0001002 0.0
-0.0118543 -0.0001148 0.0
-0.0117739 -0.0001294 0.0
-0.0116840 -0.0001439 0.0
-0.0115849 -0.0001582 0.0
-0.0114764 -0.0001725 0.0
-0.0113589 -0.0001866 0.0
-0.0112322 -0.0002006 0.0
-0.0110967 -0.0002143 0.0
-0.0109524 -0.0002277 0.0
-0.0107995 -0.0002409 0.0
-0.0106382 -0.0002538 0.0
-0.0104686 -0.0002664 0.0
-0.0102912 -0.0002786 0.0
-0.0101060 -0.0002903 0.0
-0.0099133 -0.0003017 0.0
-0.0097134 -0.0003126 0.0
-0.0095067 -0.0003231 0.0
-0.0092934 -0.0003330 0.0
-0.0090739 -0.0003424 0.0
-0.0088486 -0.0003512 0.0
-0.0086177 -0.0003595 0.0
-0.0083817 -0.0003671 0.0
-0.0081410 -0.0003741 0.0
-0.0078960 -0.0003805 0.0
-0.0076471 -0.0003862 0.0
-0.0073947 -0.0003911 0.0
-0.0071394 -0.0003954 0.0
-0.0068815 -0.0003990 0.0
-0.0066216 -0.0004018 0.0
-0.0063601 -0.0004038 0.0
-0.0060975 -0.0004051 0.0
-0.0058343 -0.0004056 0.0
-0.0055710 -0.0004054 0.0
-0.0053080 -0.0004043 0.0
-0.0050460 -0.0004025 0.0
-0.0047853 -0.0003999 0.0
-0.0045266 -0.0003965 0.0
-0.0042702 -0.0003923 0.0
-0.0040168 -0.0003873 0.0
-0.0037667 -0.0003816 0.0
-0.0035205 -0.0003751 0.0
-0.0032786 -0.0003679 0.0
-0.0030416 -0.0003599 0.0
-0.0028099 -0.0003512 0.0
-0.0025839 -0.0003418 0.0
-0.0023641 -0.0003318 0.0
-0.0021508 -0.0003211 0.0
-0.0019446 -0.0003097 0.0
-0.0017458 -0.0002978 0.0
-0.0015547 -0.0002853 0.0
-0.0013718 -0.0002722 0.0
-0.0011973 -0.0002587 0.0
-0.0010315 -0.0002447 0.0
-0.0008748 -0.0002302 0.0
-0.0007274 -0.0002154 0.0
-0.0005895 -0.0002002 0.0
-0.0004613 -0.0001848 0.0
-0.0003431 -0.0001691 0.0
-0.0002348 -0.0001531 0.0
-0.0001367 -0.0001371 0.0
-0.0000487 -0.0001210 0.0
0.0000291 -0.0001049 0.0
0.0000967 -0.0000888 0.0
0.0001541 -0.0000729 0.0
0.0002016 -0.0000571 0.0
0.0002394 -0.0000418 0.0
0.0002675 -0.0000268 0.0
0.0002865 -0.0000124 0.0
0.0002965 0.0000014 0.0
0.0002982 0.0000144 0.0
0.0002921 0.0000263 0.0
0.0002789 0.0000371 0.0
0.0002593 0.0000465 0.0
0.0002343 0.0000542 0.0
0.0002051 0.0000599 0.0
0.0001727 0.0000633 0.0
0.0001387 0.0000639 0.0
0.0001047 0.0000614 0.0
0.0000725 0.0000553 0.0
0.0000440 0.0000454 0.0
0.0000210 0.0000319 0.0
0.0000057 0.0000157 0.0
0.0000000 0.0000000 0.0
0.0000000 0.0000000 0.0
-0.0000520 -0.0001836 0.0
-0.0001080 -0.0002620 0.0
-0.0001304 -0.0002627 0.0
-0.0001240 -0.0002268 0.0
-0.0001039 -0.0001795 0.0
-0.0000823 -0.0001317 0.0
-0.0000670 -0.0000868 0.0
-0.0000623 -0.0000452 0.0
-0.0000705 -0.0000063 0.0
-0.0000925 0.0000304 0.0
-0.0001289 0.0000655 0.0
-0.0001797 0.0000992 0.0
-0.0002449 0.0001318 0.0
-0.0003243 0.0001631 0.0
-0.0004176 0.0001934 0.0
-0.0005244 0.0002226 0.0
-0.0006443 0.0002507 0.0
-0.0007770 0.0002776 0.0
-0.0009218 0.0003034 0.0
-0.0010784 0.0003280 0.0
-0.0012463 0.0003514 0.0
-0.0014249 0.0003737 0.0
-0.0016137 0.0003947 0.0
-0.0018121 0.0004146 0.0
-0.0020198 0.0004334 0.0
-0.0022361 0.0004510 0.0
-0.0024604 0.0004675 0.0
-0.0026924 0.0004829 0.0
-0.0029315 0.0004972 0.0
-0.0031772 0.0005104 0.0
-0.0034291 0.0005227 0.0
-0.0036865 0.0005339 0.0
-0.0039492 0.0005442 0.0
-0.0042166 0.0005536 0.0
-0.0044882 0.0005620 0.0
-0.0047638 0.0005696 0.0
-0.0050427 0.0005763 0.0
-0.0053247 0.0005821 0.0
-0.0056094 0.0005872 0.0
-0.0058963 0.0005915 0.0
-0.0061850 0.0005950 0.0
-0.0064753 0.0005977 0.0
-0.0067667 0.0005998 0.0
-0.0070589 0.0006011 0.0
-0.0073515 0.0006017 0.0
-0.0076443 0.0006017 0.0
-0.0079368 0.0006009 0.0
-0.0082288 0.0005996 0.0
-0.0085200 0.0005975 0.0
-0.0088099 0.0005949 0.0
-0.0090984 0.0005916 0.0
-0.0093850 0.0005877 0.0
-0.0096695 0.0005831 0.0
-0.0099517 0.0005780 0.0
-0.0102311 0.0005722 0.0
-0.0105074 0.0005658 0.0
-0.0107805 0.0005588 0.0
-0.0110499 0.0005512 0.0
-0.0113154 0.0005430 0.0
-0.0115767 0.0005342 0.0
-0.0118335 0.0005248 0.0
-0.0120854 0.0005147 0.0
-0.0123323 0.0005041 0.0
-0.0125737 0.0004928 0.0
-0.0128094 0.0004809 0.0
-0.0130391 0.0004684 0.0
-0.0132625 0.0004553 0.0
-0.0134793 0.0004416 0.0
-0.0136892 0.0004273 0.0
-0.0138919 0.0004124 0.0
-0.0140872 0.0003968 0.0
-0.0142746 0.0003807 0.0
-0.0144540 0.0003640 0.0