# vtk DataFile Version 2.0
Lid Driven Cavity Flow
ASCII
DATASET STRUCTURED_GRID
DIMENSIONS 181 181 1
POINTS 32761 float
0.0000000 0.0000000 0.0
0.0055556 0.0000000 0.0
0.0111111 0.0000000 0.0
0.0166667 0.0000000 0.0
0.0222222 0.0000000 0.0
0.0277778 0.0000000 0.0
0.0333333 0.0000000 0.0
0.0388889 0.0000000 0.0
0.0444444 0.0000000 0.0
0.0500000 0.0000000 0.0
0.0555556 0.0000000 0.0
0.0611111 0.0000000 0.0
0.0666667 0.0000000 0.0
0.0722222 0.0000000 0.0
0.0777778 0.0000000 0.0
0.0833333 0.0000000 0.0
0.0888889 0.0000000 0.0
0.0944444 0.0000000 0.0
0.1000000 0.0000000 0.0
0.1055556 0.0000000 0.0
0.1111111 0.0000000 0.0
0.1166667 0.0000000 0.0
0.1222222 0.0000000 0.0
0.1277778 0.0000000 0.0
0.1333333 0.0000000 0.0
0.1388889 0.0000000 0.0
0.1444444 0.0000000 0.0
0.1500000 0.0000000 0.0
0.1555556 0.0000000 0.0
0.1611111 0.0000000 0.0
0.1666667 0.0000000 0.0
0.1722222 0.0000000 0.0
0.1777778 0.0000000 0.0
0.1833333 0.0000000 0.0
0.1888889 0.0000000 0.0
0.1944444 0.0000000 0.0
0.2000000 0.0000000 0.0
0.2055556 0.0000000 0.0
0.2111111 0.0000000 0.0
0.2166667 0.0000000 0.0
0.2222222 0.0000000 0.0
0.2277778 0.0000000 0.0
0.2333333 0.0000000 0.0
0.2388889 0.0000000 0.0
0.2444444 0.0000000 0.0
0.2500000 0.0000000 0.0
0.2555556 0.0000000 0.0
0.2611111 0.0000000 0.0
0.2666667 0.0000000 0.0
0.2722222 0.0000000 0.0
0.2777778 0.0000000 0.0
0.2833333 0.0000000 0.0
0.2888889 0.0000000 0.0
0.2944444 0.0000000 0.0
0.3000000 0.0000000 0.0
0.3055556 0.0000000 0.0
0.3111111 0.0000000 0.0
0.3166667 0.0000000 0.0
0.3222222 0.0000000 0.0
0.3277778 0.0000000 0.0
0.3333333 0.0000000 0.0
0.3388889 0.0000000 0.0
0.3444444 0.0000000 0.0
0.3500000 0.0000000 0.0
0.3555556 0.0000000 0.0
0.3611111 0.0000000 0.0
0.3666667 0.0000000 0.0
0.3722222 0.0000000 0.0
0.3777778 0.0000000 0.0
0.3833333 0.0000000 0.0
0.3888889 0.0000000 0.0
0.3944444 0.0000000 0.0
0.4000000 0.0000000 0.0
0.4055556 0.0000000 0.0
0.4111111 0.0000000 0.0
0.4166667 0.0000000 0.0
0.4222222 0.0000000 0.0
0.4277778 0.0000000 0.0
0.4333333 0.0000000 0.0
0.4388889 0.0000000 0.0
0.4444444 0.0000000 0.0
0.4500000 0.0000000 0.0
0.4555556 0.0000000 0.0
0.4611111 0.0000000 0.0
0.4666667 0.0000000 0.0
0.4722222 0.0000000 0.0
0.4777778 0.0000000 0.0
0.4833333 0.0000000 0.0
0.4888889 0.0000000 0.0
0.4944444 0.0000000 0.0
0.5000000 0.0000000 0.0
0.5055556 0.0000000 0.0
0.5111111 0.0000000 0.0
0.5166667 0.0000000 0.0
0.5222222 0.0000000 0.0
0.5277778 0.0000000 0.0
0.5333333 0.0000000 0.0
0.5388889 0.0000000 0.0
0.5444444 0.0000000 0.0
0.5500000 0.0000000 0.0
0.5555556 0.0000000 0.0
0.5611111 0.0000000 0.0
0.5666667 0.0000000 0.0
0.5722222 0.0000000 0.0
0.5777778 0.0000000 0.0
0.5833333 0.0000000 0.0
0.5888889 0.0000000 0.0
0.5944444 0.0000000 0.0
0.6000000 0.0000000 0.0
0.6055556 0.0000000 0.0
0.6111111 0.0000000 0.0
0.6166667 0.0000000 0.0
0.6222222 0.0000000 0.0
0.6277778 0.0000000 0.0
0.6333333 0.0000000 0.0
0.6388889 0.0000000 0.0
0.6444444 0.0000000 0.0
0.6500000 0.0000000 0.0
0.6555556 0.0000000 0.0
0.6611111 0.0000000 0.0
0.6666667 0.0000000 0.0
0.6722222 0.0000000 0.0
0.6777778 0.0000000 0.0
0.6833333 0.0000000 0.0
0.6888889 0.0000000 0.0
0.6944444 0.0000000 0.0
0.7000000 0.0000000 0.0
0.7055556 0.0000000 0.0
0.7111111 0.0000000 0.0
0.7166667 0.0000000 0.0
0.7222222 0.0000000 0.0
0.7277778 0.0000000 0.0
0.7333333 0.0000000 0.0
0.7388889 0.0000000 0.0
0.7444444 0.0000000 0.0
0.7500000 0.0000000 0.0
0.7555556 0.0000000 0.0
0.7611111 0.0000000 0.0
0.7666667 0.0000000 0.0
0.7722222 0.0000000 0.0
0.7777778 0.0000000 0.0
0.7833333 0.0000000 0.0
0.7888889 0.0000000 0.0
0.7944444 0.0000000 0.0
0.8000000 0.0000000 0.0
0.8055556 0.0000000 0.0
0.8111111 0.0000000 0.0
0.8166667 0.0000000 0.0
0.8222222 0.0000000 0.0
0.8277778 0.0000000 0.0
0.8333333 0.0000000 0.0
0.8388889 0.0000000 0.0
0.8444444 0.0000000 0.0
0.8500000 0.0000000 0.0
0.8555556 0.0000000 0.0
0.8611111 0.0000000 0.0
0.8666667 0.0000000 0.0
0.8722222 0.0000000 0.0
0.8777778 0.0000000 0.0
0.8833333 0.0000000 0.0
0.8888889 0.0000000 0.0
0.8944444 0.0000000 0.0
0.9000000 0.0000000 0.0
0.9055556 0.0000000 0.0
0.9111111 0.0000000 0.0
0.9166667 0.0000000 0.0
0.9222222 0.0000000 0.0
0.9277778 0.0000000 0.0
0.9333333 0.0000000 0.0
0.9388889 0.0000000 0.0
0.9444444 0.0000000 0.0
0.9500000 0.0000000 0.0
0.9555556 0.0000000 0.0
0.9611111 0.0000000 0.0
0.9666667 0.0000000 0.0
0.9722222 0.0000000 0.0
0.9777778 0.0000000 0.0
0.9833333 0.0000000 0.0
0.9888889 0.0000000 0.0
0.9944444 0.0000000 0.0
1.0000000 0.0000000 0.0
0.0000000 0.0055556 0.0
0.0055556 0.0055556 0.0
0.0111111 0.0055556 0.0
0.0166667 0.0055556 0.0
0.0222222 0.0055556 0.0
0.0277778 0.0055556 0.0
0.0333333 0.0055556 0.0
0.0388889 0.0055556 0.0
0.0444444 0.0055556 0.0
0.0500000 0.0055556 0.0
0.0555556 0.0055556 0.0
0.0611111 0.0055556 0.0
0.0666667 0.0055556 0.0
0.0722222 0.0055556 0.0
0.0777778 0.0055556 0.0
0.0833333 0.0055556 0.0
0.0888889 0.0055556 0.0
0.0944444 0.0055556 0.0
0.1000000 0.0055556 0.0
0.1055556 0.0055556 0.0
0.1111111 0.0055556 0.0
0.1166667 0.0055556 0.0
0.1222222 0.0055556 0.0
0.1277778 0.0055556 0.0
0.1333333 0.0055556 0.0
0.1388889 0.0055556 0.0
0.1444444 0.0055556 0.0
0.1500000 0.0055556 0.0
0.1555556 0.0055556 0.0
0.1611111 0.0055556 0.0
0.1666667 0.0055556 0.0
0.1722222 0.0055556 0.0
0.1777778 0.0055556 0.0
0.1833333 0.0055556 0.0
0.1888889 0.0055556 0.0
0.1944444 0.0055556 0.0
0.2000000 0.0055556 0.0
0.2055556 0.0055556 0.0
0.2111111 0.0055556 0.0
0.2166667 0.0055556 0.0
0.2222222 0.0055556 0.0
0.2277778 0.0055556 0.0
0.2333333 0.0055556 0.0
0.2388889 0.0055556 0.0
0.2444444 0.0055556 0.0
0.2500000 0.0055556 0.0
0.2555556 0.0055556 0.0
0.2611111 0.0055556 0.0
0.2666667 0.0055556 0.0
0.2722222 0.0055556 0.0
0.2777778 0.0055556 0.0
0.2833333 0.0055556 0.0
0.2888889 0.0055556 0.0
0.2944444 0.0055556 0.0
0.3000000 0.0055556 0.0
0.3055556 0.0055556 0.0
0.3111111 0.0055556 0.0
0.3166667 0.0055556 0.0
0.3222222 0.0055556 0.0
0.3277778 0.0055556 0.0
0.3333333 0.0055556 0.0
0.3388889 0.0055556 0.0
0.3444444 0.0055556 0.0
0.3500000 0.0055556 0.0
0.3555556 0.0055556 0.0
0.3611111 0.0055556 0.0
0.3666667 0.0055556 0.0
0.3722222 0.0055556 0.0
0.3777778 0.0055556 0.0
0.3833333 0.0055556 0.0
0.3888889 0.0055556 0.0
0.3944444 0.0055556 0.0
0.4000000 0.0055556 0.0
0.4055556 0.0055556 0.0
0.4111111 0.0055556 0.0
0.4166667 0.0055556 0.0
0.4222222 0.0055556 0.0
0.4277778 0.0055556 0.0
0.4333333 0.0055556 0.0
0.4388889 0.0055556 0.0
0.4444444 0.0055556 0.0
0.4500000 0.0055556 0.0
0.4555556 0.0055556 0.0
0.4611111 0.0055556 0.0
0.4666667 0.0055556 0.0
0.4722222 0.0055556 0.0
0.4777778 0.0055556 0.0
0.4833333 0.0055556 0.0
0.4888889 0.0055556 0.0
0.4944444 0.0055556 0.0
0.5000000 0.0055556 0.0
0.5055556 0.0055556 0.0
0.5111111 0.0055556 0.0
0.5166667 0.0055556 0.0
0.5222222 0.0055556 0.0
0.5277778 0.0055556 0.0
0.5333333 0.0055556 0.0
0.5388889 0.0055556 0.0
0.5444444 0.0055556 0.0
0.5500000 0.0055556 0.0
0.5555556 0.0055556 0.0
0.5611111 0.0055556 0.0
0.5666667 0.0055556 0.0
0.5722222 0.0055556 0.0
0.5777778 0.0055556 0.0
0.5833333 0.0055556 0.0
0.5888889 0.0055556 0.0
0.5944444 0.0055556 0.0
0.6000000 0.0055556 0.0
0.6055556 0.0055556 0.0
0.6111111 0.0055556 0.0
0.6166667 0.0055556 0.0
0.6222222 0.0055556 0.0
0.6277778 0.0055556 0.0
0.6333333 0.0055556 0.0
0.6388889 0.0055556 0.0
0.6444444 0.0055556 0.0
0.6500000 0.0055556 0.0
0.6555556 0.0055556 0.0
0.6611111 0.0055556 0.0
0.6666667 0.0055556 0.0
0.6722222 0.0055556 0.0
0.6777778 0.0055556 0.0
0.6833333 0.0055556 0.0
0.6888889 0.0055556 0.0
0.6944444 0.0055556 0.0
0.7000000 0.0055556 0.0
0.7055556 0.0055556 0.0
0.7111111 0.0055556 0.0
0.7166667 0.0055556 0.0
0.7222222 0.0055556 0.0
0.7277778 0.0055556 0.0
0.7333333 0.0055556 0.0
0.7388889 0.0055556 0.0
0.7444444 0.0055556 0.0
0.7500000 0.0055556 0.0
0.7555556 0.0055556 0.0
0.7611111 0.0055556 0.0
0.7666667 0.0055556 0.0
0.7722222 0.0055556 0.0
0.7777778 0.0055556 0.0
0.7833333 0.0055556 0.0
0.7888889 0.0055556 0.0
0.7944444 0.0055556 0.0
0.8000000 0.0055556 0.0
0.8055556 0.0055556 0.0
0.8111111 0.0055556 0.0
0.8166667 0.0055556 0.0
0.8222222 0.0055556 0.0
0.8277778 0.0055556 0.0
0.8333333 0.0055556 0.0
0.8388889 0.0055556 0.0
0.8444444 0.0055556 0.0
0.8500000 0.0055556 0.0
0.8555556 0.0055556 0.0
0.8611111 0.0055556 0.0
0.8666667 0.0055556 0.0
0.8722222 0.0055556 0.0
0.8777778 0.0055556 0.0
0.8833333 0.0055556 0.0
0.8888889 0.0055556 0.0
0.8944444 0.0055556 0.0
0.9000000 0.0055556 0.0
0.9055556 0.0055556 0.0
0.9111111 0.0055556 0.0
0.9166667 0.0055556 0.0
0.9222222 0.0055556 0.0
0.9277778 0.0055556 0.0
0.9333333 0.0055556 0.0
0.9388889 0.0055556 0.0
0.9444444 0.0055556 0.0
0.9500000 0.0055556 0.0
0.9555556 0.0055556 0.0
0.9611111 0.0055556 0.0
0.9666667 0.0055556 0.0
0.9722222 0.0055556 0.0
0.9777778 0.0055556 0.0
0.9833333 0.0055556 0.0
0.9888889 0.0055556 0.0
0.9944444 0.0055556 0.0
1.0000000 0.0055556 0.0
0.0000000 0.0111111 0.0
0.0055556 0.0111111 0.0
0.0111111 0.0111111 0.0
0.0166667 0.0111111 0.0
0.0222222 0.0111111 0.0
0.0277778 0.0111111 0.0
0.0333333 0.0111111 0.0
0.0388889 0.0111111 0.0
0.0444444 0.0111111 0.0
0.0500000 0.0111111 0.0
0.0555556 0.0111111 0.0
0.0611111 0.0111111 0.0
0.0666667 0.0111111 0.0
0.0722222 0.0111111 0.0
0.0777778 0.0111111 0.0
0.0833333 0.0111111 0.0
0.0888889 0.0111111 0.0
0.0944444 0.0111111 0.0
0.1000000 0.0111111 0.0
0.1055556 0.0111111 0.0
0.1111111 0.0111111 0.0
0.1166667 0.0111111 0.0
0.1222222 0.0111111 0.0
0.1277778 0.0111111 0.0
0.1333333 0.0111111 0.0
0.1388889 0.0111111 0.0
0.1444444 0.0111111 0.0
0.1500000 0.0111111 0.0
0.1555556 0.0111111 0.0
0.1611111 0.0111111 0.0
0.1666667 0.0111111 0.0
0.1722222 0.0111111 0.0
0.1777778 0.0111111 0.0
0.1833333 0.0111111 0.0
0.1888889 0.0111111 0.0
0.1944444 0.0111111 0.0
0.2000000 0.0111111 0.0
0.2055556 0.0111111 0.0
0.2111111 0.0111111 0.0
0.2166667 0.0111111 0.0
0.2222222 0.0111111 0.0
0.2277778 0.0111111 0.0
0.2333333 0.0111111 0.0
0.2388889 0.0111111 0.0
0.2444444 0.0111111 0.0
0.2500000 0.0111111 0.0
0.2555556 0.0111111 0.0
0.2611111 0.0111111 0.0
0.2666667 0.0111111 0.0
[...]
POINT_DATA 32761
VECTORS velocity float
0.0000000 0.0000000 0.0
0.0000000 0.0000000 0.0
0.0000000 0.0000000 0.0
0.0000000 0.0000000 0.0
0.0000000 0.0000000 0.0
0.0000000 0.0000000 0.0
0.0000000 0.0000000 0.0
0.0000000 0.0000000 0.0
0.0000000 0.0000000 0.0
0.0000000 0.0000000 0.0
0.0000000 0.0000000 0.0
0.0000000 0.0000000 0.0
0.0000000 0.0000000 0.0
0.0000000 0.0000000 0.0
0.0000000 0.0000000 0.0
0.0000000 0.0000000 0.0
0.0000000 0.0000000 0.0
0.0000000 0.0000000 0.0
0.0000000 0.0000000 0.0
0.0000000 0.0000000 0.0
0.0000000 0.0000000 0.0
0.0000000 0.0000000 0.0
0.0000000 0.0000000 0.0
0.0000000 0.0000000 0.0
0.0000000 0.0000000 0.0
0.0000000 0.0000000 0.0
0.0000000 0.0000000 0.0
0.0000000 0.0000000 0.0
0.0000000 0.0000000 0.0
0.0000000 0.0000000 0.0
0.0000000 0.0000000 0.0
0.0000000 0.0000000 0.0
0.0000000 0.0000000 0.0
0.0000000 0.0000000 0.0
0.0000000 0.0000000 0.0
0.0000000 0.0000000 0.0
0.0000000 0.0000000 0.0
0.0000000 0.0000000 0.0
0.0000000 0.0000000 0.0
0.0000000 0.0000000 0.0
0.0000000 0.0000000 0.0
0.0000000 0.0000000 0.0
0.0000000 0.0000000 0.0
0.0000000 0.0000000 0.0
0.0000000 0.0000000 0.0
0.0000000 0.0000000 0.0
0.0000000 0.0000000 0.0
0.0000000 0.0000000 0.0
0.0000000 0.0000000 0.0
0.0000000 0.0000000 0.0
0.0000000 0.0000000 0.0
0.0000000 0.0000000 0.0
0.0000000 0.0000000 0.0
0.0000000 0.0000000 0.0
0.0000000 0.0000000 0.0
0.0000000 0.0000000 0.0
0.0000000 0.0000000 0.0
0.0000000 0.0000000 0.0
0.0000000 0.0000000 0.0
0.0000000 0.0000000 0.0
0.0000000 0.0000000 0.0
0.0000000 0.0000000 0.0
0.0000000 0.0000000 0.0
0.0000000 0.0000000 0.0
0.0000000 0.0000000 0.0
0.0000000 0.0000000 0.0
0.0000000 0.0000000 0.0
0.0000000 0.0000000 0.0
0.0000000 0.0000000 0.0
0.0000000 0.0000000 0.0
0.0000000 0.0000000 0.0
0.0000000 0.0000000 0.0
0.0000000 0.0000000 0.0
0.0000000 0.0000000 0.0
0.0000000 0.0000000 0.0
0.0000000 0.0000000 0.0
0.0000000 0.0000000 0.0
0.0000000 0.0000000 0.0
0.0000000 0.0000000 0.0
0.0000000 0.0000000 0.0
0.0000000 0.0000000 0.0
0.0000000 0.0000000 0.0
0.0000000 0.0000000 0.0
0.0000000 0.0000000 0.0
0.0000000 0.0000000 0.0
0.0000000 0.0000000 0.0
0.0000000 0.0000000 0.0
0.0000000 0.0000000 0.0
0.0000000 0.0000000 0.0
0.0000000 0.0000000 0.0
0.0000000 0.0000000 0.0
0.0000000 0.0000000 0.0
0.0000000 0.0000000 0.0
0.0000000 0.0000000 0.0
0.0000000 0.0000000 0.0
0.0000000 0.0000000 0.0
0.0000000 0.0000000 0.0
0.0000000 0.0000000 0.0
0.0000000 0.0000000 0.0
0.0000000 0.0000000 0.0
0.0000000 0.0000000 0.0
0.0000000 0.0000000 0.0
0.0000000 0.0000000 0.0
0.0000000 0.0000000 0.0
0.0000000 0.0000000 0.0
0.0000000 0.0000000 0.0
0.0000000 0.0000000 0.0
0.0000000 0.0000000 0.0
0.0000000 0.0000000 0.0
0.0000000 0.0000000 0.0
0.0000000 0.0000000 0.0
0.0000000 0.0000000 0.0
0.0000000 0.0000000 0.0
0.0000000 0.0000000 0.0
0.0000000 0.0000000 0.0
0.0000000 0.0000000 0.0
0.0000000 0.0000000 0.0
0.0000000 0.0000000 0.0
0.0000000 0.0000000 0.0
0.0000000 0.0000000 0.0
0.0000000 0.0000000 0.0
0.0000000 0.0000000 0.0
0.0000000 0.0000000 0.0
0.0000000 0.0000000 0.0
0.0000000 0.0000000 0.0
0.0000000 0.0000000 0.0
0.0000000 0.0000000 0.0
0.0000000 0.0000000 0.0
0.0000000 0.0000000 0.0
0.0000000 0.0000000 0.0
0.0000000 0.0000000 0.0
0.0000000 0.0000000 0.0
0.0000000 0.0000000 0.0
0.0000000 0.0000000 0.0
0.0000000 0.0000000 0.0
0.0000000 0.0000000 0.0
0.0000000 0.0000000 0.0
0.0000000 0.0000000 0.0
0.0000000 0.0000000 0.0
0.0000000 0.0000000 0.0
0.0000000 0.0000000 0.0
0.0000000 0.0000000 0.0
0.0000000 0.0000000 0.0
0.0000000 0.0000000 0.0
0.0000000 0.0000000 0.0
0.0000000 0.0000000 0.0
0.0000000 0.0000000 0.0
0.0000000 0.0000000 0.0
0.0000000 0.0000000 0.0
0.0000000 0.0000000 0.0
0.0000000 0.0000000 0.0
0.0000000 0.0000000 0.0
0.0000000 0.0000000 0.0
0.0000000 0.0000000 0.0
0.0000000 0.0000000 0.0
0.0000000 0.0000000 0.0
0.0000000 0.0000000 0.0
0.0000000 0.0000000 0.0
0.0000000 0.0000000 0.0
0.0000000 0.0000000 0.0
0.0000000 0.0000000 0.0
0.0000000 0.0000000 0.0
0.0000000 0.0000000 0.0
0.0000000 0.0000000 0.0
0.0000000 0.0000000 0.0
0.0000000 0.0000000 0.0
0.0000000 0.0000000 0.0
0.0000000 0.0000000 0.0
0.0000000 0.0000000 0.0
0.0000000 0.0000000 0.0
0.0000000 0.0000000 0.0
0.0000000 0.0000000 0.0
0.0000000 0.0000000 0.0
0.0000000 0.0000000 0.0
0.0000000 0.0000000 0.0
0.0000000 0.0000000 0.0
0.0000000 0.0000000 0.0
0.0000000 0.0000000 0.0
0.0000000 0.0000000 0.0
0.0000000 0.0000000 0.0
0.0000025 0.0000000 0.0
0.0000000 0.0000000 0.0
-0.0000111 0.0000109 0.0
-0.0000026 -0.0000049 0.0
0.0000447 -0.0000308 0.0
0.0001378 -0.0000590 0.0
0.0002771 -0.0000860 0.0
0.0004591 -0.0001098 0.0
0.0006779 -0.0001294 0.0
0.0009260 -0.0001443 0.0
0.0011951 -0.0001541 0.0
0.0014766 -0.0001587 0.0
0.0017617 -0.0001583 0.0
0.0020422 -0.0001534 0.0
0.0023111 -0.0001446 0.0
0.0025620 -0.0001328 0.0
0.0027904 -0.0001187 0.0
0.0029932 -0.0001033 0.0
0.0031686 -0.0000875 0.0
0.0033166 -0.0000722 0.0
0.0034383 -0.0000580 0.0
0.0035361 -0.0000457 0.0
0.0036131 -0.0000355 0.0
0.0036733 -0.0000277 0.0
0.0037208 -0.0000226 0.0
0.0037601 -0.0000201 0.0
0.0037954 -0.0000201 0.0
0.0038307 -0.0000223 0.0
0.0038694 -0.0000264 0.0
0.0039144 -0.0000320 0.0
0.0039674 -0.0000384 0.0
0.0040295 -0.0000454 0.0
0.0041009 -0.0000521 0.0
0.0041806 -0.0000583 0.0
0.0042670 -0.0000634 0.0
0.0043577 -0.0000671 0.0
0.0044495 -0.0000691 0.0
0.0045391 -0.0000692 0.0
0.0046229 -0.0000675 0.0
0.0046970 -0.0000639 0.0
0.0047578 -0.0000586 0.0
0.0048018 -0.0000516 0.0
0.0048253 -0.0000431 0.0
0.0048248 -0.0000329 0.0
0.0047967 -0.0000212 0.0
0.0047371 -0.0000076 0.0
0.0046420 0.0000079 0.0
0.0045068 0.0000256 0.0
0.0043264 0.0000458 0.0
0.0040953 0.0000689 0.0
0.0038077 0.0000950 0.0
0.0034572 0.0001244 0.0
0.0030370 0.0001574 0.0
0.0025403 0.0001941 0.0
0.0019599 0.0002348 0.0
0.0012886 0.0002795 0.0
0.0005194 0.0003283 0.0
-0.0003547 0.0003812 0.0
-0.0013403 0.0004381 0.0
-0.0024434 0.0004989 0.0
-0.0036695 0.0005635 0.0
-0.0050232 0.0006314 0.0
-0.0065081 0.0007024 0.0
-0.0081266 0.0007758 0.0
-0.0098799 0.0008513 0.0
-0.0117677 0.0009280 0.0
-0.0137881 0.0010053 0.0
-0.0159375 0.0010823 0.0
-0.0182108 0.0011582 0.0
-0.0206009 0.0012321 0.0
-0.0230993 0.0013029 0.0
-0.0256955 0.0013699 0.0
-0.0283778 0.0014320 0.0
-0.0311327 0.0014882 0.0
-0.0339454 0.0015377 0.0
-0.0368001 0.0015796 0.0
-0.0396798 0.0016130 0.0
-0.0425665 0.0016373 0.0
-0.0454418 0.0016516 0.0
-0.0482864 0.0016554 0.0
-0.0510807 0.0016481 0.0
-0.0538051 0.0016293 0.0
-0.0564396 0.0015983 0.0
-0.0589642 0.0015551 0.0
-0.0613593 0.0014991 0.0
-0.0636052 0.0014302 0.0
-0.0656827 0.0013483 0.0
-0.0675731 0.0012533 0.0
-0.0692580 0.0011450 0.0
-0.0707199 0.0010237 0.0
-0.0719417 0.0008894 0.0
-0.0729072 0.0007423 0.0
-0.0736014 0.0005829 0.0
-0.0740099 0.0004116 0.0
-0.0741200 0.0002289 0.0
-0.0739199 0.0000358 0.0
-0.0733996 -0.0001670 0.0
-0.0725509 -0.0003781 0.0
-0.0713675 -0.0005962 0.0
-0.0698451 -0.0008198 0.0
-0.0679822 -0.0010470 0.0
-0.0657796 -0.0012757 0.0
-0.0632412 -0.0015036 0.0
-0.0603740 -0.0017281 0.0
-0.0571883 -0.0019465 0.0
-0.0536979 -0.0021557 0.0
-0.0499203 -0.0023529 0.0
-0.0458766 -0.0025348 0.0
-0.0415917 -0.0026982 0.0
-0.0370942 -0.0028402 0.0
-0.0324159 -0.0029579 0.0
-0.0275924 -0.0030486 0.0
-0.0226616 -0.0031101 0.0
-0.0176643 -0.0031405 0.0
-0.0126429 -0.0031387 0.0
-0.0076414 -0.0031040 0.0
-0.0027040 -0.0030364 0.0
0.0021248 -0.0029367 0.0
0.0068020 -0.0028062 0.0
0.0112860 -0.0026471 0.0
0.0155378 -0.0024622 0.0
0.0195219 -0.0022549 0.0
0.0232065 -0.0020288 0.0
0.0265644 -0.0017881 0.0
0.0295735 -0.0015372 0.0
0.0322168 -0.0012804 0.0
0.0344827 -0.0010220 0.0
0.0363651 -0.0007663 0.0
0.0378634 -0.0005169 0.0
0.0389817 -0.0002773 0.0
0.0397293 -0.0000506 0.0
0.0401196 0.0001608 0.0
0.0401699 0.0003548 0.0
0.0399010 0.0005300 0.0
0.0393364 0.0006853 0.0
0.0385021 0.0008201 0.0
0.0374258 0.0009340 0.0
0.0361368 0.0010272 0.0
0.0346650 0.0011002 0.0
0.0330411 0.0011534 0.0
0.0312955 0.0011880 0.0
0.0294586 0.0012049 0.0
0.0275596 0.0012056 0.0
0.0256266 0.0011915 0.0
0.0236861 0.0011642 0.0
0.0217624 0.0011257 0.0
0.0198775 0.0010776 0.0
0.0180506 0.0010219 0.0
0.0162978 0.0009605 0.0
0.0146324 0.0008951 0.0
0.0130644 0.0008274 0.0
0.0116009 0.0007590 0.0
0.0102460 0.0006913 0.0
0.0090013 0.0006252 0.0
0.0078662 0.0005618 0.0
0.0068380 0.0005018 0.0
0.0059125 0.0004457 0.0
0.0050844 0.0003938 0.0
0.0043475 0.0003462 0.0
0.0036951 0.0003029 0.0
0.0031201 0.0002640 0.0
0.0026155 0.0002291 0.0
0.0021745 0.0001982 0.0
0.0017905 0.0001708 0.0
0.0014572 0.0001468 0.0
0.0011689 0.0001257 0.0
0.0009203 0.0001073 0.0
0.0007068 0.0000911 0.0
0.0005243 0.0000770 0.0
0.0003693 0.0000644 0.0
0.0002389 0.0000530 0.0
0.0001311 0.0000425 0.0
0.0000442 0.0000325 0.0
-0.0000228 0.0000226 0.0
-0.0000704 0.0000127 0.0
-0.0000990 0.0000027 0.0
-0.0001090 -0.0000071 0.0
-0.0001016 -0.0000161 0.0
-0.0000794 -0.0000226 0.0
-0.0000479 -0.0000239 0.0
-0.0000165 -0.0000165 0.0
0.0000000 0.0000000 0.0
0.0000000 0.0000000 0.0
0.0000034 0.0000026 0.0
0.0000520 -0.0000558 0.0
0.0001670 -0.0001404 0.0
0.0003575 -0.0002324 0.0
0.0006241 -0.0003213 0.0
0.0009613 -0.0004007 0.0
0.0013598 -0.0004669 0.0
0.0018075 -0.0005173 0.0
0.0022903 -0.0005506 0.0
0.0027936 -0.0005665 0.0
0.0033029 -0.0005657 0.0
0.0038044 -0.0005494 0.0
0.0042856 -0.0005198 0.0
0.0047362 -0.0004794 0.0
0.0051481 -0.0004312 0.0
0.0055156 -0.0003782 0.0
0.0058356 -0.0003234 0.0
0.0061075 -0.0002697 0.0
0.0063329 -0.0002195 0.0
0.0065154 -0.0001748 0.0
0.0066599 -0.0001372 0.0
0.0067727 -0.0001077 0.0
0.0068608 -0.0000868 0.0
0.0069312 -0.0000746 0.0
0.0069910 -0.0000706 0.0
0.0070466 -0.0000740 0.0
0.0071037 -0.0000837 0.0
0.0071666 -0.0000979 0.0
0.0072382 -0.0001152 0.0
0.0073199 -0.0001335 0.0
0.0074113 -0.0001511 0.0
0.0075104 -0.0001661 0.0
0.0076138 -0.0001770 0.0
0.0077167 -0.0001825 0.0
0.0078130 -0.0001814 0.0
0.0078961 -0.0001734 0.0
0.0079587 -0.0001579 0.0
0.0079933 -0.0001350 0.0
0.0079923 -0.0001048 0.0
0.0079479 -0.0000674 0.0
0.0078527 -0.0000230 0.0
0.0076987 0.0000286 0.0
0.0074778 0.0000876 0.0
0.0071816 0.0001546 0.0
0.0068008 0.0002304 0.0
0.0063258 0.0003156 0.0
0.0057458 0.0004114 0.0
0.0050496 0.0005186 0.0
0.0042252 0.0006381 0.0
0.0032602 0.0007707 0.0
0.0021418 0.0009169 0.0
0.0008569 0.0010772 0.0
-0.0006071 0.0012517 0.0
-0.0022627 0.0014405 0.0
-0.0041215 0.0016433 0.0
-0.0061943 0.0018597 0.0
-0.0084906 0.0020887 0.0
-0.0110179 0.0023292 0.0
-0.0137821 0.0025798 0.0
-0.0167865 0.0028386 0.0
-0.0200320 0.0031034 0.0
-0.0235164 0.0033719 0.0
-0.0272345 0.0036411 0.0
-0.0311779 0.0039082 0.0
-0.0353351 0.0041698 0.0
-0.0396910 0.0044227 0.0
-0.0442277 0.0046634 0.0
-0.0489241 0.0048885 0.0
-0.0537563 0.0050946 0.0
-0.0586982 0.0052785 0.0
-0.0637214 0.0054371 0.0
-0.0687958 0.0055676 0.0
-0.0738901 0.0056675 0.0
-0.0789720 0.0057344 0.0
-0.0840085 0.0057664 0.0
-0.0889666 0.0057620 0.0
-0.0938134 0.0057198 0.0
-0.0985164 0.0056390 0.0
-0.1030438 0.0055188 0.0
-0.1073646 0.0053589 0.0
-0.1114491 0.0051591 0.0
-0.1152687 0.0049197 0.0
-0.1187961 0.0046409 0.0
-0.1220055 0.0043234 0.0
-0.1248725 0.0039679 0.0
-0.1273743 0.0035753 0.0
-0.1294897 0.0031468 0.0
-0.1311990 0.0026836 0.0
-0.1324845 0.0021873 0.0
-0.1333299 0.0016597 0.0
-0.1337209 0.0011027 0.0
-0.1336450 0.0005186 0.0
-0.1330918 -0.0000901 0.0
-0.1320530 -0.0007203 0.0
-0.1305224 -0.0013689 0.0
-0.1284964 -0.0020321 0.0
-0.1259738 -0.0027058 0.0
-0.1229564 -0.0033853 0.0
-0.1194487 -0.0040655 0.0
-0.1154584 -0.0047410 0.0
-0.1109968 -0.0054056 0.0
-0.1060783 -0.0060529 0.0
-0.1007214 -0.0066761 0.0
-0.0949482 -0.0072680 0.0
-0.0887847 -0.0078213 0.0
-0.0822611 -0.0083286 0.0
-0.0754115 -0.0087825 0.0
-0.0682739 -0.0091758 0.0
-0.0608901 -0.0095018 0.0
-0.0533057 -0.0097544 0.0
-0.0455691 -0.0099281 0.0
-0.0377321 -0.0100187 0.0
-0.0298484 -0.0100229 0.0
-0.0219736 -0.0099389 0.0
-0.0141646 -0.0097662 0.0
-0.0064783 -0.0095060 0.0
0.0010286 -0.0091611 0.0
0.0083008 -0.0087358 0.0
0.0152849 -0.0082359 0.0
0.0219306 -0.0076687 0.0
0.0281913 -0.0070426 0.0
0.0340248 -0.0063671 0.0
0.0393938 -0.0056524 0.0
0.0442667 -0.0049092 0.0
0.0486178 -0.0041483 0.0
0.0524278 -0.0033807 0.0
0.0556834 -0.0026166 0.0
0.0583782 -0.0018659 0.0
0.0605115 -0.0011379 0.0
0.0620893 -0.0004406 0.0
0.0631230 0.0002186 0.0
0.0636297 0.0008335 0.0
0.0636316 0.0013989 0.0
0.0631556 0.0019106 0.0
0.0622328 0.0023653 0.0
0.0608982 0.0027608 0.0
0.0591904 0.0030957 0.0
0.0571507 0.0033695 0.0
0.0548228 0.0035825 0.0
0.0522523 0.0037360 0.0
0.0494857 0.0038320 0.0
0.0465703 0.0038735 0.0
0.0435525 0.0038641 0.0
0.0404776 0.0038086 0.0
0.0373887 0.0037119 0.0
0.0343259 0.0035797 0.0
0.0313253 0.0034182 0.0
0.0284186 0.0032334 0.0
0.0256324 0.0030315 0.0
0.0229882 0.0028184 0.0
0.0205023 0.0025996 0.0
0.0181855 0.0023798 0.0
0.0160441 0.0021633 0.0
0.0140799 0.0019537 0.0
0.0122912 0.0017536 0.0
0.0106730 0.0015650 0.0
0.0092181 0.0013894 0.0
0.0079172 0.0012274 0.0
0.0067601 0.0010795 0.0
0.0057357 0.0009455 0.0
0.0048328 0.0008250 0.0
0.0040400 0.0007173 0.0
0.0033464 0.0006216 0.0
0.0027419 0.0005369 0.0
0.0022167 0.0004621 0.0
0.0017622 0.0003960 0.0
0.0013705 0.0003375 0.0
0.0010351 0.0002854 0.0
0.0007501 0.0002382 0.0
0.0005111 0.0001948 0.0
0.0003146 0.0001539 0.0
0.0001579 0.0001146 0.0
0.0000391 0.0000762 0.0
-0.0000431 0.0000386 0.0
-0.0000904 0.0000026 0.0
-0.0001056 -0.0000296 0.0
-0.0000933 -0.0000537 0.0
-0.0000616 -0.0000629 0.0
-0.0000237 -0.0000479 0.0
0.0000000 0.0000000 0.0
0.0000000 0.0000000 0.0
0.0000258 -0.0000411 0.0
0.0001262 -0.0001685 0.0
0.0003168 -0.0003363 0.0
0.0006047 -0.0005161 0.0
0.0009889 -0.0006898 0.0
0.0014621 -0.0008456 0.0
0.0020124 -0.0009756 0.0
0.0026240 -0.0010747 0.0
0.0032793 -0.0011402 0.0
0.0039595 -0.0011713 0.0
0.0046459 -0.0011691 0.0
0.0053208 -0.0011361 0.0
0.0059682 -0.0010765 0.0
0.0065749 -0.0009952 0.0
0.0071302 -0.0008980 0.0
0.0076267 -0.0007908 0.0
0.0080602 -0.0006795 0.0
0.0084294 -0.0005695 0.0
0.0087361 -0.0004659 0.0
0.0089844 -0.0003726 0.0
0.0091802 -0.0002928 0.0
0.0093312 -0.0002286 0.0
0.0094458 -0.0001811 0.0
0.0095326 -0.0001504 0.0
0.0096004 -0.0001356 0.0
0.0096568 -0.0001351 0.0
0.0097084 -0.0001464 0.0
0.0097604 -0.0001664 0.0
0.0098156 -0.0001917 0.0
0.0098750 -0.0002184 0.0
0.0099373 -0.0002427 0.0
0.0099988 -0.0002609 0.0
0.0100540 -0.0002697 0.0
0.0100952 -0.0002662 0.0
0.0101135 -0.0002485 0.0
0.0100985 -0.0002149 0.0
0.0100393 -0.0001647 0.0
0.0099243 -0.0000975 0.0
0.0097415 -0.0000133 0.0
0.0094789 0.0000879 0.0
0.0091241 0.0002062 0.0
0.0086642 0.0003419 0.0
0.0080860 0.0004959 0.0
0.0073756 0.0006694 0.0
0.0065181 0.0008637 0.0
0.0054980 0.0010806 0.0
0.0042988 0.0013220 0.0
0.0029033 0.0015894 0.0
0.0012937 0.0018843 0.0
-0.0005477 0.0022079 0.0
-0.0026386 0.0025607 0.0
-0.0049961 0.0029430 0.0
-0.0076363 0.0033544 0.0
-0.0105736 0.0037939 0.0
-0.0138205 0.0042600 0.0
-0.0173868 0.0047502 0.0
-0.0212793 0.0052617 0.0
-0.0255011 0.0057905 0.0
-0.0300513 0.0063321 0.0
-0.0349245 0.0068813 0.0
-0.0401108 0.0074322 0.0
-0.0455953 0.0079783 0.0
-0.0513584 0.0085128 0.0
-0.0573758 0.0090286 0.0
-0.0636187 0.0095184 0.0
-0.0700544 0.0099749 0.0
-0.0766468 0.0103912 0.0
-0.0833566 0.0107606 0.0
-0.0901426 0.0110771 0.0
-0.0969620 0.0113350 0.0
-0.1037711 0.0115296 0.0
-0.1105259 0.0116570 0.0
-0.1171833 0.0117139 0.0
-0.1237007 0.0116980 0.0
-0.1300371 0.0116077 0.0
-0.1361535 0.0114422 0.0
-0.1420126 0.0112014 0.0
-0.1475798 0.0108858 0.0
-0.1528227 0.0104964 0.0
-0.1577114 0.0100346 0.0
-0.1622186 0.0095025 0.0
-0.1663193 0.0089021 0.0
-0.1699910 0.0082359 0.0
-0.1732134 0.0075066 0.0
-0.1759685 0.0067171 0.0
-0.1782403 0.0058704 0.0
-0.1800149 0.0049698 0.0
-0.1812801 0.0040185 0.0
-0.1820258 0.0030203 0.0
-0.1822434 0.0019787 0.0
-0.1819262 0.0008980 0.0
-0.1810691 -0.0002175 0.0
-0.1796688 -0.0013631 0.0
-0.1777238 -0.0025337 0.0
-0.1752343 -0.0037236 0.0
-0.1722027 -0.0049267 0.0
-0.1686330 -0.0061362 0.0
-0.1645318 -0.0073450 0.0
-0.1599078 -0.0085450 0.0
-0.1547722 -0.0097276 0.0
-0.1491389 -0.0108837 0.0
-0.1430246 -0.0120035 0.0
-0.1364492 -0.0130766 0.0
-0.1294355 -0.0140925 0.0
-0.1220098 -0.0150400 0.0
-0.1142019 -0.0159080 0.0
-0.1060449 -0.0166854 0.0
-0.0975756 -0.0173615 0.0
-0.0888342 -0.0179261 0.0
-0.0798645 -0.0183696 0.0
-0.0707132 -0.0186836 0.0
-0.0614301 -0.0188613 0.0
-0.0520675 -0.0188972 0.0
-0.0426798 -0.0187878 0.0
-0.0333229 -0.0185318 0.0
-0.0240539 -0.0181298 0.0
-0.0149300 -0.0175852 0.0
-0.0060080 -0.0169034 0.0
0.0026564 -0.0160921 0.0
0.0110095 -0.0151613 0.0
0.0189999 -0.0141229 0.0
0.0265799 -0.0129906 0.0
0.0337052 -0.0117791 0.0
0.0403363 -0.0105044 0.0
0.0464384 -0.0091831 0.0
0.0519816 -0.0078319 0.0
0.0569418 -0.0064673 0.0
0.0613003 -0.0051054 0.0
0.0650439 -0.0037618 0.0
0.0681652 -0.0024507 0.0
0.0706622 -0.0011856 0.0
0.0725385 0.0000214 0.0
0.0738032 0.0011595 0.0
0.0744705 0.0022189 0.0
0.0745600 0.0031914 0.0
0.0740964 0.0040696 0.0
0.0731098 0.0048477 0.0
0.0716348 0.0055211 0.0
0.0697113 0.0060864 0.0
0.0673836 0.0065420 0.0
0.0647000 0.0068875 0.0
0.0617126 0.0071247 0.0
0.0584762 0.0072569 0.0
0.0550471 0.0072894 0.0
0.0514826 0.0072293 0.0
0.0478387 0.0070853 0.0
0.0441697 0.0068678 0.0
0.0405261 0.0065880 0.0
0.0369537 0.0062577 0.0
0.0334925 0.0058892 0.0
0.0301762 0.0054940 0.0
0.0270314 0.0050834 0.0
0.0240779 0.0046674 0.0
0.0213290 0.0042547 0.0
0.0187917 0.0038526 0.0
0.0164676 0.0034669 0.0
0.0143538 0.0031020 0.0
0.0124437 0.0027609 0.0
0.0107278 0.0024455 0.0
0.0091946 0.0021565 0.0
0.0078314 0.0018939 0.0
0.0066247 0.0016571 0.0
0.0055608 0.0014448 0.0
0.0046264 0.0012554 0.0
0.0038088 0.0010870 0.0
0.0030960 0.0009373 0.0
0.0024773 0.0008041 0.0
0.0019431 0.0006848 0.0
0.0014851 0.0005770 0.0
0.0010962 0.0004781 0.0
0.0007709 0.0003857 0.0
0.0005048 0.0002980 0.0
0.0002943 0.0002136 0.0
0.0001364 0.0001323 0.0
0.0000283 0.0000554 0.0
-0.0000339 -0.0000132 0.0
-0.0000559 -0.0000666 0.0
-0.0000469 -0.0000935 0.0
-0.0000208 -0.0000781 0.0
0.0000000 0.0000000 0.0
0.0000000 0.0000000 0.0
0.0000483 -0.0001236 0.0
0.0002019 -0.0003469 0.0
0.0004684 -0.0006189 0.0
0.0008501 -0.0009045 0.0
0.0013432 -0.0011787 0.0
0.0019380 -0.0014243 0.0
0.0026195 -0.0016288 0.0
0.0033693 -0.0017842 0.0
0.0041667 -0.0018861 0.0
0.0049896 -0.0019331 0.0
0.0058164 -0.0019269 0.0
0.0066266 -0.0018717 0.0
0.0074021 -0.0017739 0.0
0.0081272 -0.0016413 0.0
0.0087900 -0.0014830 0.0
0.0093817 -0.0013081 0.0
0.0098974 -0.0011261 0.0
0.0103356 -0.0009457 0.0
0.0106980 -0.0007744 0.0
0.0109888 -0.0006189 0.0
0.0112149 -0.0004840 0.0
0.0113842 -0.0003732 0.0
0.0115060 -0.0002882 0.0
0.0115897 -0.0002292 0.0
0.0116445 -0.0001948 0.0
0.0116785 -0.0001821 0.0
0.0116984 -0.0001872 0.0
0.0117088 -0.0002051 0.0
0.0117120 -0.0002298 0.0
0.0117077 -0.0002552 0.0
0.0116926 -0.0002749 0.0
0.0116610 -0.0002828 0.0
0.0116043 -0.0002734 0.0
0.0115119 -0.0002419 0.0
0.0113710 -0.0001847 0.0
0.0111676 -0.0000992 0.0
0.0108863 0.0000163 0.0
0.0105112 0.0001628 0.0
0.0100254 0.0003406 0.0
0.0094120 0.0005501 0.0
0.0086532 0.0007918 0.0
0.0077307 0.0010667 0.0
0.0066255 0.0013762 0.0
0.0053178 0.0017225 0.0
0.0037867 0.0021079 0.0
0.0020107 0.0025350 0.0
-0.0000323 0.0030062 0.0
-0.0023645 0.0035237 0.0
-0.0050083 0.0040891 0.0
-0.0079847 0.0047030 0.0
-0.0113138 0.0053653 0.0
-0.0150133 0.0060749 0.0
-0.0190981 0.0068292 0.0
-0.0235796 0.0076247 0.0
-0.0284648 0.0084566 0.0
-0.0337556 0.0093185 0.0
-0.0394485 0.0102030 0.0
-0.0455338 0.0111012 0.0
-0.0519954 0.0120032 0.0
-0.0588109 0.0128981 0.0
-0.0659514 0.0137742 0.0
-0.0733821 0.0146195 0.0
-0.0810628 0.0154216 0.0
-0.0889483 0.0161685 0.0
-0.0969902 0.0168485 0.0
-0.1051368 0.0174508 0.0
-0.1133351 0.0179656 0.0
-0.1215313 0.0183843 0.0
-0.1296721 0.0187000 0.0
-0.1377053 0.0189069 0.0
-0.1455810 0.0190011 0.0
-0.1532519 0.0189799 0.0
-0.1606738 0.0188422 0.0
-0.1678062 0.0185882 0.0
-0.1746121 0.0182192 0.0
-0.1810583 0.0177375 0.0
-0.1871154 0.0171462 0.0
-0.1927575 0.0164491 0.0
-0.1979618 0.0156504 0.0
-0.2027091 0.0147547 0.0
-0.2069827 0.0137670 0.0
-0.2107685 0.0126920 0.0
-0.2140549 0.0115350 0.0
-0.2168320 0.0103009 0.0