# vtk DataFile Version 3.0
Channel Flow Simulation
ASCII
DATASET STRUCTURED_GRID
DIMENSIONS 100 100 1
POINTS 10000 float
0.005 0.995 0.0
0.015 0.995 0.0
0.025 0.995 0.0
0.035 0.995 0.0
0.045 0.995 0.0
0.055 0.995 0.0
0.065 0.995 0.0
0.075 0.995 0.0
0.085 0.995 0.0
0.095 0.995 0.0
0.105 0.995 0.0
0.115 0.995 0.0
0.125 0.995 0.0
0.135 0.995 0.0
0.145 0.995 0.0
0.155 0.995 0.0
0.165 0.995 0.0
0.175 0.995 0.0
0.185 0.995 0.0
0.195 0.995 0.0
0.205 0.995 0.0
0.215 0.995 0.0
0.225 0.995 0.0
0.235 0.995 0.0
0.245 0.995 0.0
0.255 0.995 0.0
0.265 0.995 0.0
0.275 0.995 0.0
0.285 0.995 0.0
0.295 0.995 0.0
0.305 0.995 0.0
0.315 0.995 0.0
0.325 0.995 0.0
0.335 0.995 0.0
0.345 0.995 0.0
0.355 0.995 0.0
0.365 0.995 0.0
0.375 0.995 0.0
0.385 0.995 0.0
0.395 0.995 0.0
0.405 0.995 0.0
0.415 0.995 0.0
0.425 0.995 0.0
0.435 0.995 0.0
0.445 0.995 0.0
0.455 0.995 0.0
0.465 0.995 0.0
0.475 0.995 0.0
0.485 0.995 0.0
0.495 0.995 0.0
0.505 0.995 0.0
0.515 0.995 0.0
0.525 0.995 0.0
0.535 0.995 0.0
0.545 0.995 0.0
0.555 0.995 0.0
0.565 0.995 0.0
0.575 0.995 0.0
0.585 0.995 0.0
0.595 0.995 0.0
0.605 0.995 0.0
0.615 0.995 0.0
0.625 0.995 0.0
0.635 0.995 0.0
0.645 0.995 0.0
0.655 0.995 0.0
0.665 0.995 0.0
0.675 0.995 0.0
0.685 0.995 0.0
0.695 0.995 0.0
0.705 0.995 0.0
0.715 0.995 0.0
0.725 0.995 0.0
0.735 0.995 0.0
0.745 0.995 0.0
0.755 0.995 0.0
0.765 0.995 0.0
0.775 0.995 0.0
0.785 0.995 0.0
0.795 0.995 0.0
0.805 0.995 0.0
0.815 0.995 0.0
0.825 0.995 0.0
0.835 0.995 0.0
0.845 0.995 0.0
0.855 0.995 0.0
0.865 0.995 0.0
0.875 0.995 0.0
0.885 0.995 0.0
0.895 0.995 0.0
0.905 0.995 0.0
0.915 0.995 0.0
0.925 0.995 0.0
0.935 0.995 0.0
0.945 0.995 0.0
0.955 0.995 0.0
0.965 0.995 0.0
0.975 0.995 0.0
0.985 0.995 0.0
0.995 0.995 0.0
0.005 0.985 0.0
0.015 0.985 0.0
0.025 0.985 0.0
0.035 0.985 0.0
0.045 0.985 0.0
0.055 0.985 0.0
0.065 0.985 0.0
0.075 0.985 0.0
0.085 0.985 0.0
0.095 0.985 0.0
0.105 0.985 0.0
0.115 0.985 0.0
0.125 0.985 0.0
0.135 0.985 0.0
0.145 0.985 0.0
0.155 0.985 0.0
0.165 0.985 0.0
0.175 0.985 0.0
0.185 0.985 0.0
0.195 0.985 0.0
0.205 0.985 0.0
0.215 0.985 0.0
0.225 0.985 0.0
0.235 0.985 0.0
0.245 0.985 0.0
0.255 0.985 0.0
0.265 0.985 0.0
0.275 0.985 0.0
0.285 0.985 0.0
0.295 0.985 0.0
0.305 0.985 0.0
0.315 0.985 0.0
0.325 0.985 0.0
0.335 0.985 0.0
0.345 0.985 0.0
0.355 0.985 0.0
0.365 0.985 0.0
0.375 0.985 0.0
0.385 0.985 0.0
0.395 0.985 0.0
0.405 0.985 0.0
0.415 0.985 0.0
0.425 0.985 0.0
0.435 0.985 0.0
0.445 0.985 0.0
0.455 0.985 0.0
0.465 0.985 0.0
0.475 0.985 0.0
0.485 0.985 0.0
0.495 0.985 0.0
0.505 0.985 0.0
0.515 0.985 0.0
0.525 0.985 0.0
0.535 0.985 0.0
0.545 0.985 0.0
0.555 0.985 0.0
0.565 0.985 0.0
0.575 0.985 0.0
0.585 0.985 0.0
0.595 0.985 0.0
0.605 0.985 0.0
0.615 0.985 0.0
0.625 0.985 0.0
0.635 0.985 0.0
0.645 0.985 0.0
0.655 0.985 0.0
0.665 0.985 0.0
0.675 0.985 0.0
0.685 0.985 0.0
0.695 0.985 0.0
0.705 0.985 0.0
0.715 0.985 0.0
0.725 0.985 0.0
0.735 0.985 0.0
0.745 0.985 0.0
0.755 0.985 0.0
0.765 0.985 0.0
0.775 0.985 0.0
0.785 0.985 0.0
0.795 0.985 0.0
0.805 0.985 0.0
0.815 0.985 0.0
0.825 0.985 0.0
0.835 0.985 0.0
0.845 0.985 0.0
0.855 0.985 0.0
0.865 0.985 0.0
0.875 0.985 0.0
0.885 0.985 0.0
0.895 0.985 0.0
0.905 0.985 0.0
0.915 0.985 0.0
0.925 0.985 0.0
0.935 0.985 0.0
0.945 0.985 0.0
0.955 0.985 0.0
0.965 0.985 0.0
0.975 0.985 0.0
0.985 0.985 0.0
0.995 0.985 0.0
0.005 0.975 0.0
0.015 0.975 0.0
0.025 0.975 0.0
0.035 0.975 0.0
0.045 0.975 0.0
0.055 0.975 0.0
0.065 0.975 0.0
0.075 0.975 0.0
0.085 0.975 0.0
0.095 0.975 0.0
0.105 0.975 0.0
0.115 0.975 0.0
0.125 0.975 0.0
0.135 0.975 0.0
0.145 0.975 0.0
0.155 0.975 0.0
0.165 0.975 0.0
0.175 0.975 0.0
0.185 0.975 0.0
0.195 0.975 0.0
0.205 0.975 0.0
0.215 0.975 0.0
0.225 0.975 0.0
0.235 0.975 0.0
0.245 0.975 0.0
0.255 0.975 0.0
0.265 0.975 0.0
0.275 0.975 0.0
0.285 0.975 0.0
0.295 0.975 0.0
0.305 0.975 0.0
0.315 0.975 0.0
0.325 0.975 0.0
0.335 0.975 0.0
0.345 0.975 0.0
0.355 0.975 0.0
0.365 0.975 0.0
0.375 0.975 0.0
0.385 0.975 0.0
0.395 0.975 0.0
0.405 0.975 0.0
0.415 0.975 0.0
0.425 0.975 0.0
0.435 0.975 0.0
0.445 0.975 0.0
0.455 0.975 0.0
0.465 0.975 0.0
0.475 0.975 0.0
0.485 0.975 0.0
0.495 0.975 0.0
0.505 0.975 0.0
0.515 0.975 0.0
0.525 0.975 0.0
0.535 0.975 0.0
0.545 0.975 0.0
0.555 0.975 0.0
0.565 0.975 0.0
0.575 0.975 0.0
0.585 0.975 0.0
0.595 0.975 0.0
0.605 0.975 0.0
0.615 0.975 0.0
0.625 0.975 0.0
0.635 0.975 0.0
0.645 0.975 0.0
0.655 0.975 0.0
0.665 0.975 0.0
0.675 0.975 0.0
0.685 0.975 0.0
0.695 0.975 0.0
0.705 0.975 0.0
0.715 0.975 0.0
0.725 0.975 0.0
0.735 0.975 0.0
0.745 0.975 0.0
0.755 0.975 0.0
0.765 0.975 0.0
0.775 0.975 0.0
0.785 0.975 0.0
0.795 0.975 0.0
0.805 0.975 0.0
0.815 0.975 0.0
0.825 0.975 0.0
0.835 0.975 0.0
0.845 0.975 0.0
0.855 0.975 0.0
0.865 0.975 0.0
0.875 0.975 0.0
0.885 0.975 0.0
0.895 0.975 0.0
0.905 0.975 0.0
0.915 0.975 0.0
0.925 0.975 0.0
0.935 0.975 0.0
0.945 0.975 0.0
0.955 0.975 0.0
0.965 0.975 0.0
0.975 0.975 0.0
0.985 0.975 0.0
0.995 0.975 0.0
0.005 0.965 0.0
0.015 0.965 0.0
0.025 0.965 0.0
0.035 0.965 0.0
0.045 0.965 0.0
0.055 0.965 0.0
0.065 0.965 0.0
0.075 0.965 0.0
0.085 0.965 0.0
0.095 0.965 0.0
0.105 0.965 0.0
0.115 0.965 0.0
0.125 0.965 0.0
0.135 0.965 0.0
0.145 0.965 0.0
0.155 0.965 0.0
0.165 0.965 0.0
0.175 0.965 0.0
0.185 0.965 0.0
0.195 0.965 0.0
0.205 0.965 0.0
0.215 0.965 0.0
0.225 0.965 0.0
0.235 0.965 0.0
0.245 0.965 0.0
0.255 0.965 0.0
0.265 0.965 0.0
0.275 0.965 0.0
0.285 0.965 0.0
0.295 0.965 0.0
0.305 0.965 0.0
0.315 0.965 0.0
0.325 0.965 0.0
0.335 0.965 0.0
0.345 0.965 0.0
0.355 0.965 0.0
0.365 0.965 0.0
0.375 0.965 0.0
0.385 0.965 0.0
0.395 0.965 0.0
0.405 0.965 0.0
0.415 0.965 0.0
0.425 0.965 0.0
0.435 0.965 0.0
0.445 0.965 0.0
0.455 0.965 0.0
0.465 0.965 0.0
0.475 0.965 0.0
0.485 0.965 0.0
0.495 0.965 0.0
0.505 0.965 0.0
0.515 0.965 0.0
0.525 0.965 0.0
0.535 0.965 0.0
0.545 0.965 0.0
0.555 0.965 0.0
0.565 0.965 0.0
0.575 0.965 0.0
0.585 0.965 0.0
0.595 0.965 0.0
0.605 0.965 0.0
0.615 0.965 0.0
0.625 0.965 0.0
0.635 0.965 0.0
0.645 0.965 0.0
0.655 0.965 0.0
0.665 0.965 0.0
0.675 0.965 0.0
0.685 0.965 0.0
0.695 0.965 0.0
0.705 0.965 0.0
0.715 0.965 0.0
0.725 0.965 0.0
0.735 0.965 0.0
0.745 0.965 0.0
0.755 0.965 0.0
0.765 0.965 0.0
0.775 0.965 0.0
0.785 0.965 0.0
0.795 0.965 0.0
0.805 0.965 0.0
0.815 0.965 0.0
0.825 0.965 0.0
0.835 0.965 0.0
0.845 0.965 0.0
0.855 0.965 0.0
0.865 0.965 0.0
0.875 0.965 0.0
0.885 0.965 0.0
0.895 0.965 0.0
0.905 0.965 0.0
0.915 0.965 0.0
0.925 0.965 0.0
0.935 0.965 0.0
0.945 0.965 0.0
0.955 0.965 0.0
0.965 0.965 0.0
0.975 0.965 0.0
0.985 0.965 0.0
0.995 0.965 0.0
0.005 0.955 0.0
0.015 0.955 0.0
0.025 0.955 0.0
0.035 0.955 0.0
0.045 0.955 0.0
0.055 0.955 0.0
0.065 0.955 0.0
0.075 0.955 0.0
0.085 0.955 0.0
0.095 0.955 0.0
0.105 0.955 0.0
0.115 0.955 0.0
0.125 0.955 0.0
0.135 0.955 0.0
0.145 0.955 0.0
0.155 0.955 0.0
0.165 0.955 0.0
0.175 0.955 0.0
0.185 0.955 0.0
0.195 0.955 0.0
0.205 0.955 0.0
0.215 0.955 0.0
0.225 0.955 0.0
0.235 0.955 0.0
0.245 0.955 0.0
0.255 0.955 0.0
0.265 0.955 0.0
0.275 0.955 0.0
0.285 0.955 0.0
0.295 0.955 0.0
0.305 0.955 0.0
0.315 0.955 0.0
0.325 0.955 0.0
0.335 0.955 0.0
0.345 0.955 0.0
0.355 0.955 0.0
0.365 0.955 0.0
0.375 0.955 0.0
0.385 0.955 0.0
0.395 0.955 0.0
0.405 0.955 0.0
0.415 0.955 0.0
0.425 0.955 0.0
0.435 0.955 0.0
0.445 0.955 0.0
0.455 0.955 0.0
0.465 0.955 0.0
0.475 0.955 0.0
0.485 0.955 0.0
0.495 0.955 0.0
0.505 0.955 0.0
0.515 0.955 0.0
0.525 0.955 0.0
0.535 0.955 0.0
0.545 0.955 0.0
0.555 0.955 0.0
0.565 0.955 0.0
0.575 0.955 0.0
0.585 0.955 0.0
0.595 0.955 0.0
0.605 0.955 0.0
0.615 0.955 0.0
0.625 0.955 0.0
0.635 0.955 0.0
0.645 0.955 0.0
0.655 0.955 0.0
0.665 0.955 0.0
0.675 0.955 0.0
0.685 0.955 0.0
0.695 0.955 0.0
0.705 0.955 0.0
0.715 0.955 0.0
0.725 0.955 0.0
0.735 0.955 0.0
0.745 0.955 0.0
0.755 0.955 0.0
0.765 0.955 0.0
0.775 0.955 0.0
0.785 0.955 0.0
0.795 0.955 0.0
0.805 0.955 0.0
0.815 0.955 0.0
0.825 0.955 0.0
0.835 0.955 0.0
0.845 0.955 0.0
0.855 0.955 0.0
0.865 0.955 0.0
0.875 0.955 0.0
0.885 0.955 0.0
0.895 0.955 0.0
0.905 0.955 0.0
0.915 0.955 0.0
0.925 0.955 0.0
0.935 0.955 0.0
0.945 0.955 0.0
0.955 0.955 0.0
0.965 0.955 0.0
0.975 0.955 0.0
0.985 0.955 0.0
0.995 0.955 0.0
0.005 0.945 0.0
0.015 0.945 0.0
0.025 0.945 0.0
0.035 0.945 0.0
0.045 0.945 0.0
0.055 0.945 0.0
0.065 0.945 0.0
0.075 0.945 0.0
0.085 0.945 0.0
0.095 0.945 0.0
0.105 0.945 0.0
0.115 0.945 0.0
0.125 0.945 0.0
0.135 0.945 0.0
0.145 0.945 0.0
0.155 0.945 0.0
0.165 0.945 0.0
0.175 0.945 0.0
0.185 0.945 0.0
0.195 0.945 0.0
0.205 0.945 0.0
0.215 0.945 0.0
0.225 0.945 0.0
0.235 0.945 0.0
0.245 0.945 0.0
0.255 0.945 0.0
0.265 0.945 0.0
0.275 0.945 0.0
0.285 0.945 0.0
0.295 0.945 0.0
0.305 0.945 0.0
0.315 0.945 0.0
0.325 0.945 0.0
0.335 0.945 0.0
0.345 0.945 0.0
0.355 0.945 0.0
0.365 0.945 0.0
0.375 0.945 0.0
0.385 0.945 0.0
0.395 0.945 0.0
0.405 0.945 0.0
0.415 0.945 0.0
0.425 0.945 0.0
0.435 0.945 0.0
0.445 0.945 0.0
0.455 0.945 0.0
0.465 0.945 0.0
0.475 0.945 0.0
0.485 0.945 0.0
0.495 0.945 0.0
0.505 0.945 0.0
0.515 0.945 0.0
0.525 0.945 0.0
0.535 0.945 0.0
0.545 0.945 0.0
0.555 0.945 0.0
0.565 0.945 0.0
0.575 0.945 0.0
0.585 0.945 0.0
0.595 0.945 0.0
0.605 0.945 0.0
0.615 0.945 0.0
0.625 0.945 0.0
0.635 0.945 0.0
0.645 0.945 0.0
0.655 0.945 0.0
0.665 0.945 0.0
0.675 0.945 0.0
0.685 0.945 0.0
0.695 0.945 0.0
0.705 0.945 0.0
0.715 0.945 0.0
0.725 0.945 0.0
0.735 0.945 0.0
0.745 0.945 0.0
0.755 0.945 0.0
0.765 0.945 0.0
0.775 0.945 0.0
0.785 0.945 0.0
0.795 0.945 0.0
0.805 0.945 0.0
0.815 0.945 0.0
0.825 0.945 0.0
0.835 0.945 0.0
0.845 0.945 0.0
0.855 0.945 0.0
0.865 0.945 0.0
0.875 0.945 0.0
0.885 0.945 0.0
0.895 0.945 0.0
0.905 0.945 0.0
0.915 0.945 0.0
0.925 0.945 0.0
0.935 0.945 0.0
0.945 0.945 0.0
0.955 0.945 0.0
0.965 0.945 0.0
0.975 0.945 0.0
0.985 0.945 0.0
0.995 0.945 0.0
0.005 0.935 0.0
0.015 0.935 0.0
0.025 0.935 0.0
0.035 0.935 0.0
0.045 0.935 0.0
0.055 0.935 0.0
0.065 0.935 0.0
0.075 0.935 0.0
0.085 0.935 0.0
0.095 0.935 0.0
0.105 0.935 0.0
0.115 0.935 0.0
0.125 0.935 0.0
0.135 0.935 0.0
0.145 0.935 0.0
0.155 0.935 0.0
0.165 0.935 0.0
[...]
POINT_DATA 10000
VECTORS velocity float
2 -0.191608 0.0
1.80839 -0.28256 0.0
1.52583 -0.269042 0.0
1.25679 -0.221187 0.0
1.0356 -0.168364 0.0
0.867239 -0.122802 0.0
0.744437 -0.0881732 0.0
0.656264 -0.0638717 0.0
0.592392 -0.047617 0.0
0.544775 -0.0369432 0.0
0.507832 -0.029856 0.0
0.477976 -0.0249745 0.0
0.453002 -0.0214341 0.0
0.431567 -0.0187281 0.0
0.412839 -0.0165695 0.0
0.39627 -0.0147947 0.0
0.381475 -0.0133067 0.0
0.368168 -0.0120429 0.0
0.356126 -0.0109596 0.0
0.345166 -0.0100237 0.0
0.335142 -0.00920958 0.0
0.325933 -0.0084967 0.0
0.317436 -0.00786849 0.0
0.309568 -0.00731159 0.0
0.302256 -0.00681515 0.0
0.295441 -0.00637033 0.0
0.28907 -0.00596988 0.0
0.283101 -0.00560785 0.0
0.277493 -0.00527925 0.0
0.272213 -0.00497994 0.0
0.267234 -0.00470641 0.0
0.262527 -0.00445567 0.0
0.258071 -0.00422517 0.0
0.253846 -0.00401273 0.0
0.249834 -0.00381646 0.0
0.246017 -0.0036347 0.0
0.242382 -0.00346601 0.0
0.238916 -0.00330915 0.0
0.235607 -0.00316301 0.0
0.232444 -0.00302661 0.0
0.229418 -0.00289908 0.0
0.226519 -0.00277966 0.0
0.223739 -0.00266766 0.0
0.221071 -0.00256246 0.0
0.218509 -0.00246352 0.0
0.216045 -0.00237035 0.0
0.213675 -0.0022825 0.0
0.211392 -0.00219956 0.0
0.209193 -0.00212117 0.0
0.207072 -0.002047 0.0
0.205025 -0.00197676 0.0
0.203048 -0.00191016 0.0
0.201138 -0.00184695 0.0
0.199291 -0.00178691 0.0
0.197504 -0.00172982 0.0
0.195774 -0.0016755 0.0
0.194099 -0.00162375 0.0
0.192475 -0.00157443 0.0
0.1909 -0.00152738 0.0
0.189373 -0.00148245 0.0
0.187891 -0.00143952 0.0
0.186451 -0.00139846 0.0
0.185053 -0.00135917 0.0
0.183693 -0.00132155 0.0
0.182372 -0.00128548 0.0
0.181086 -0.00125089 0.0
0.179835 -0.00121768 0.0
0.178618 -0.00118578 0.0
0.177432 -0.0011551 0.0
0.176277 -0.00112559 0.0
0.175151 -0.00109717 0.0
0.174054 -0.00106978 0.0
0.172984 -0.00104336 0.0
0.171941 -0.00101785 0.0
0.170923 -0.000993194 0.0
0.16993 -0.000969346 0.0
0.168961 -0.000946254 0.0
0.168014 -0.000923873 0.0
0.16709 -0.000902157 0.0
0.166188 -0.000881065 0.0
0.165307 -0.000860561 0.0
0.164447 -0.000840612 0.0
0.163606 -0.000821191 0.0
0.162785 -0.00080228 0.0
0.161983 -0.000783876 0.0
0.161199 -0.000765992 0.0
0.160433 -0.000748674 0.0
0.159684 -0.000732009 0.0
0.158952 -0.000716154 0.0
0.158236 -0.000701382 0.0
0.157535 -0.000688129 0.0
0.156846 -0.000677155 0.0
0.156169 -0.000669649 0.0
0.1555 -0.000667885 0.0
0.154832 -0.000675393 0.0
0.154156 -0.000700677 0.0
0.153456 -0.000757866 0.0
0.152698 -0.000900543 0.0
0.151797 -0.00124941 0.0
0.150548 -0.00259894 0.0
2 -0.104692 0.0
2.08692 -0.235631 0.0
2.13385 -0.289606 0.0
2.11328 -0.293068 0.0
2.0414 -0.269627 0.0
1.94014 -0.235542 0.0
1.8274 -0.200353 0.0
1.71522 -0.168678 0.0
1.61041 -0.142068 0.0
1.51596 -0.120466 0.0
1.43244 -0.103161 0.0
1.35913 -0.0892987 0.0
1.29481 -0.0781104 0.0
1.23813 -0.0689784 0.0
1.18788 -0.0614334 0.0
1.14302 -0.0551255 0.0
1.10269 -0.0497945 0.0
1.0662 -0.0452452 0.0
1.033 -0.0413286 0.0
1.00263 -0.0379297 0.0
0.974723 -0.0349587 0.0
0.948974 -0.0323442 0.0
0.925126 -0.0300293 0.0
0.902965 -0.0279682 0.0
0.882309 -0.0261236 0.0
0.863 -0.0244649 0.0
0.844906 -0.022967 0.0
0.827909 -0.0216089 0.0
0.811908 -0.020373 0.0
0.796814 -0.0192447 0.0
0.782549 -0.0182113 0.0
0.769044 -0.0172621 0.0
0.756238 -0.0163878 0.0
0.744075 -0.0155807 0.0
0.732507 -0.0148336 0.0
0.72149 -0.0141408 0.0
0.710984 -0.0134968 0.0
0.700953 -0.0128971 0.0
0.691365 -0.0123376 0.0
0.682191 -0.0118146 0.0
0.673403 -0.0113252 0.0
0.664977 -0.0108662 0.0
0.65689 -0.0104353 0.0
0.649122 -0.0100301 0.0
0.641655 -0.00964867 0.0
0.63447 -0.00928906 0.0
0.627551 -0.00894963 0.0
0.620884 -0.0086289 0.0
0.614454 -0.00832549 0.0
0.60825 -0.00803816 0.0
0.602259 -0.00776579 0.0
0.59647 -0.00750734 0.0
0.590873 -0.00726187 0.0
0.585458 -0.00702851 0.0
0.580216 -0.00680647 0.0
0.57514 -0.00659503 0.0
0.57022 -0.0063935 0.0
0.56545 -0.00620127 0.0
0.560823 -0.00601777 0.0
0.556333 -0.00584247 0.0
0.551973 -0.00567486 0.0
0.547738 -0.0055145 0.0
0.543622 -0.00536096 0.0
0.53962 -0.00521385 0.0
0.535728 -0.00507278 0.0
0.53194 -0.00493742 0.0
0.528254 -0.00480745 0.0
0.524664 -0.00468255 0.0
0.521167 -0.00456245 0.0
0.51776 -0.00444687 0.0
0.514439 -0.00433555 0.0
0.5112 -0.00422826 0.0
0.508042 -0.00412477 0.0
0.50496 -0.00402487 0.0
0.501953 -0.00392834 0.0
0.499018 -0.00383499 0.0
0.496152 -0.00374463 0.0
0.493354 -0.0036571 0.0
0.490621 -0.00357221 0.0
0.487951 -0.00348981 0.0
0.485342 -0.00340976 0.0
0.482793 -0.00333192 0.0
0.480302 -0.00325619 0.0
0.477867 -0.00318247 0.0
0.475486 -0.00311071 0.0
0.47316 -0.00304093 0.0
0.470885 -0.00297322 0.0
0.46866 -0.00290778 0.0
0.466484 -0.00284502 0.0
0.464355 -0.00278566 0.0
0.462271 -0.00273086 0.0
0.460228 -0.00268269 0.0
0.458223 -0.00264419 0.0
0.456248 -0.00262152 0.0
0.454295 -0.00262271 0.0
0.452347 -0.00266934 0.0
0.450379 -0.0027816 0.0
0.448355 -0.00306481 0.0
0.446191 -0.00349763 0.0
0.443942 -0.00536424 0.0
2 -0.0583365 0.0
2.04636 -0.156991 0.0
2.125 -0.221417 0.0
2.19318 -0.253382 0.0
2.23287 -0.261049 0.0
2.24145 -0.253297 0.0
2.22369 -0.237325 0.0
2.18672 -0.218046 0.0
2.13735 -0.198368 0.0
2.08105 -0.179768 0.0
2.02175 -0.162849 0.0
1.96206 -0.147744 0.0
1.90362 -0.134369 0.0
1.84736 -0.122555 0.0
1.79378 -0.112118 0.0
1.7431 -0.102884 0.0
1.69534 -0.0946962 0.0
1.65044 -0.087418 0.0
1.60826 -0.080931 0.0
1.56866 -0.0751328 0.0
1.53146 -0.0699348 0.0
1.49648 -0.0652607 0.0
1.46357 -0.0610447 0.0
1.43255 -0.0572301 0.0
1.40329 -0.0537684 0.0
1.37564 -0.0506174 0.0
1.34949 -0.0477412 0.0
1.32472 -0.0451085 0.0
1.30122 -0.0426924 0.0
1.2789 -0.0404695 0.0
1.25767 -0.0384194 0.0
1.23746 -0.0365245 0.0
1.2182 -0.0347693 0.0
1.19982 -0.0331401 0.0
1.18226 -0.0316249 0.0
1.16547 -0.0302133 0.0
1.1494 -0.0288958 0.0
1.134 -0.0276641 0.0
1.11923 -0.0265109 0.0
1.10506 -0.0254294 0.0
1.09144 -0.0244139 0.0
1.07835 -0.0234589 0.0
1.06576 -0.0225598 0.0
1.05364 -0.0217121 0.0
1.04196 -0.020912 0.0
1.03069 -0.0201561 0.0
1.01983 -0.0194409 0.0
1.00933 -0.0187638 0.0
0.999199 -0.0181219 0.0
0.989403 -0.0175129 0.0
0.979928 -0.0169345 0.0
0.970759 -0.0163848 0.0
0.961882 -0.0158618 0.0
0.953282 -0.0153639 0.0
0.944946 -0.0148894 0.0
0.936863 -0.0144369 0.0
0.929021 -0.014005 0.0
0.92141 -0.0135926 0.0
0.914019 -0.0131983 0.0
0.906838 -0.0128212 0.0
0.899859 -0.0124603 0.0
0.893074 -0.0121147 0.0
0.886474 -0.0117834 0.0
0.880051 -0.0114656 0.0
0.873799 -0.0111606 0.0
0.867712 -0.0108678 0.0
0.861781 -0.0105863 0.0
0.856002 -0.0103157 0.0
0.850369 -0.0100552 0.0
0.844877 -0.00980442 0.0
0.839519 -0.00956274 0.0
0.834292 -0.00932969 0.0
0.82919 -0.00910478 0.0
0.82421 -0.00888759 0.0
0.819348 -0.00867766 0.0
0.814598 -0.00847461 0.0
0.809959 -0.00827804 0.0
0.805425 -0.00808758 0.0
0.800995 -0.00790287 0.0
0.796664 -0.0077236 0.0
0.79243 -0.00754944 0.0
0.788291 -0.0073801 0.0
0.784242 -0.00721535 0.0
0.780283 -0.00705495 0.0
0.776411 -0.00689878 0.0
0.772623 -0.00674675 0.0
0.768917 -0.00659896 0.0
0.765291 -0.00645566 0.0
0.761743 -0.0063174 0.0
0.758271 -0.00618528 0.0
0.754871 -0.0060609 0.0
0.751541 -0.00594751 0.0
0.748276 -0.00584905 0.0
0.745072 -0.00577538 0.0
0.741918 -0.00573413 0.0
0.738806 -0.00576111 0.0
0.735715 -0.00585272 0.0
0.732643 -0.00619278 0.0
0.729515 -0.00647048 0.0
0.726543 -0.00838992 0.0
2 -0.0377915 0.0
2.02055 -0.107441 0.0
2.0701 -0.161214 0.0
2.1303 -0.196854 0.0
2.18683 -0.216434 0.0
2.23144 -0.223725 0.0
2.26101 -0.222607 0.0
2.27573 -0.216302 0.0
2.27747 -0.207145 0.0
2.2687 -0.196667 0.0
2.2518 -0.185792 0.0
2.22886 -0.175042 0.0
2.20156 -0.16469 0.0
2.17124 -0.154866 0.0
2.13893 -0.145624 0.0
2.10542 -0.136977 0.0
2.07133 -0.128915 0.0
2.03711 -0.121414 0.0
2.00311 -0.114448 0.0
1.96959 -0.107985 0.0
1.93674 -0.10199 0.0
1.90469 -0.0964305 0.0
1.87352 -0.0912742 0.0
1.84329 -0.0864895 0.0
1.81403 -0.0820469 0.0
1.78575 -0.0779186 0.0
1.75845 -0.0740789 0.0
1.73211 -0.0705038 0.0
1.70672 -0.0671718 0.0
1.68224 -0.0640626 0.0
1.65864 -0.0611582 0.0
1.63591 -0.0584418 0.0
1.61399 -0.0558983 0.0
1.59286 -0.053514 0.0
1.57249 -0.0512762 0.0
1.55283 -0.0491737 0.0
1.53387 -0.047196 0.0
1.51557 -0.0453337 0.0
1.4979 -0.0435781 0.0
1.48084 -0.0419216 0.0
1.46434 -0.0403568 0.0
1.4484 -0.0388773 0.0
1.43298 -0.037477 0.0
1.41807 -0.0361506 0.0
1.40363 -0.034893 0.0
1.38965 -0.0336995 0.0
1.3761 -0.032566 0.0
1.36298 -0.0314885 0.0
1.35025 -0.0304636 0.0
1.33791 -0.0294877 0.0
1.32594 -0.028558 0.0
1.31431 -0.0276716 0.0
1.30303 -0.0268258 0.0
1.29206 -0.0260183 0.0
1.28141 -0.0252467 0.0
1.27105 -0.0245091 0.0
1.26098 -0.0238034 0.0
1.25118 -0.0231278 0.0
1.24164 -0.0224807 0.0
1.23236 -0.0218605 0.0
1.22332 -0.0212657 0.0
1.21452 -0.0206949 0.0
1.20594 -0.0201468 0.0
1.19757 -0.0196202 0.0
1.18942 -0.019114 0.0
1.18147 -0.0186271 0.0
1.17371 -0.0181585 0.0
1.16613 -0.0177073 0.0
1.15874 -0.0172724 0.0
1.15153 -0.0168531 0.0
1.14448 -0.0164486 0.0
1.13759 -0.0160581 0.0
1.13086 -0.0156808 0.0
1.12429 -0.0153161 0.0
1.11786 -0.0149634 0.0
1.11157 -0.0146218 0.0
1.10543 -0.0142909 0.0
1.09941 -0.0139701 0.0
1.09353 -0.0136588 0.0
1.08777 -0.0133565 0.0
1.08214 -0.0130627 0.0
1.07663 -0.0127768 0.0
1.07123 -0.0124986 0.0
1.06595 -0.0122275 0.0
1.06078 -0.0119634 0.0
1.05571 -0.0117059 0.0
1.05075 -0.0114552 0.0
1.0459 -0.0112113 0.0
1.04114 -0.0109749 0.0
1.03648 -0.010747 0.0
1.03192 -0.0105294 0.0
1.02745 -0.0103258 0.0
1.02307 -0.0101395 0.0
1.01878 -0.00998345 0.0
1.01458 -0.00985799 0.0
1.01045 -0.00981528 0.0
1.0064 -0.0098024 0.0
1.00245 -0.0100909 0.0
0.998549 -0.0101231 0.0
0.994897 -0.0117351 0.0
2 -0.0269538 0.0
2.01084 -0.0781109 0.0
2.04017 -0.120778 0.0
2.0806 -0.152685 0.0
2.12477 -0.174139 0.0
2.16707 -0.186794 0.0
2.204 -0.192726 0.0
2.23388 -0.193889 0.0
2.25629 -0.191869 0.0
2.27157 -0.187835 0.0
2.2804 -0.182594 0.0
2.2836 -0.176673 0.0
2.28197 -0.170412 0.0
2.27625 -0.164021 0.0
2.26709 -0.157636 0.0
2.25508 -0.151341 0.0
2.24072 -0.145193 0.0
2.22444 -0.139228 0.0
2.20662 -0.133468 0.0
2.1876 -0.127928 0.0
2.16766 -0.122615 0.0
2.14704 -0.117533 0.0
2.12593 -0.11268 0.0
2.10453 -0.108053 0.0
2.08296 -0.103646 0.0
2.06136 -0.0994539 0.0
2.03983 -0.0954674 0.0
2.01844 -0.0916788 0.0
1.99727 -0.0880792 0.0
1.97636 -0.0846599 0.0
1.95576 -0.081412 0.0
1.93551 -0.0783268 0.0
1.91562 -0.0753958 0.0
1.89612 -0.0726106 0.0
1.87703 -0.0699634 0.0
1.85834 -0.0674465 0.0
1.84007 -0.0650527 0.0
1.82221 -0.062775 0.0
1.80477 -0.060607 0.0
1.78774 -0.0585423 0.0
1.77112 -0.0565753 0.0
1.7549 -0.0547003 0.0
1.73908 -0.0529123 0.0
1.72364 -0.0512064 0.0
1.70859 -0.0495779 0.0
1.6939 -0.0480226 0.0
1.67958 -0.0465365 0.0
1.66561 -0.0451158 0.0
1.65198 -0.0437569 0.0
1.63869 -0.0424565 0.0
1.62572 -0.0412115 0.0
1.61307 -0.0400189 0.0
1.60072 -0.038876 0.0
1.58867 -0.0377801 0.0
1.57691 -0.0367289 0.0
1.56542 -0.03572 0.0
1.55421 -0.0347513 0.0
1.54327 -0.0338207 0.0
1.53257 -0.0329264 0.0
1.52213 -0.0320664 0.0
1.51192 -0.0312392 0.0
1.50195 -0.030443 0.0
1.4922 -0.0296764 0.0
1.48267 -0.028938 0.0
1.47335 -0.0282262 0.0
1.46424 -0.0275399 0.0
1.45533 -0.0268779 0.0
1.44661 -0.0262389 0.0
1.43808 -0.0256218 0.0
1.42973 -0.0250257 0.0
1.42155 -0.0244493 0.0
1.41355 -0.0238919 0.0
1.40572 -0.0233525 0.0
1.39805 -0.0228302 0.0
1.39053 -0.022324 0.0
1.38317 -0.0218333 0.0
1.37596 -0.0213573 0.0
1.3689 -0.020895 0.0
1.36197 -0.020446 0.0
1.35518 -0.0200093 0.0
1.34853 -0.0195844 0.0
1.34201 -0.0191706 0.0
1.33561 -0.0187673 0.0
1.32935 -0.018374 0.0
1.3232 -0.0179902 0.0
1.31717 -0.0176155 0.0
1.31126 -0.0172498 0.0
1.30547 -0.016893 0.0
1.29979 -0.0165456 0.0
1.29422 -0.0162083 0.0
1.28875 -0.0158825 0.0
1.2834 -0.0155719 0.0
1.27816 -0.0152778 0.0
1.27302 -0.0150143 0.0
1.26799 -0.0147729 0.0
1.26307 -0.0146138 0.0
1.25827 -0.014448 0.0
1.25363 -0.0145676 0.0
1.24915 -0.014373 0.0
1.2449 -0.015401 0.0
2 -0.0203451 0.0
2.00661 -0.0595356 0.0
2.02518 -0.093754 0.0
2.05221 -0.121176 0.0
2.08372 -0.141506 0.0
2.11635 -0.155442 0.0
2.1477 -0.164136 0.0
2.17629 -0.168818 0.0
2.20136 -0.170583 0.0
2.22265 -0.170305 0.0
2.24018 -0.168637 0.0
2.25414 -0.16604 0.0
2.26477 -0.162833 0.0
2.27235 -0.159232 0.0
2.27714 -0.155381 0.0
2.27939 -0.151379 0.0
2.27935 -0.147297 0.0
2.27725 -0.143183 0.0
2.2733 -0.139075 0.0
2.26769 -0.134998 0.0
2.26062 -0.130973 0.0
2.25226 -0.127017 0.0
2.24278 -0.123141 0.0
2.23232 -0.119354 0.0
2.22101 -0.115662 0.0
2.209 -0.112071 0.0
2.19638 -0.108584 0.0
2.18326 -0.105203 0.0
2.16974 -0.101929 0.0
2.15589 -0.0987613 0.0
2.14179 -0.0957002 0.0
2.1275 -0.0927443 0.0
2.11308 -0.089892 0.0
2.09859 -0.087141 0.0
2.08406 -0.0844893 0.0
2.06953 -0.0819341 0.0
2.05504 -0.0794728 0.0
2.04062 -0.0771025 0.0
2.0263 -0.0748202 0.0
2.01208 -0.0726231 0.0
1.998 -0.070508 0.0
1.98407 -0.0684721 0.0
1.9703 -0.0665123 0.0
1.9567 -0.0646258 0.0
1.94328 -0.0628097 0.0
1.93005 -0.0610613 0.0
1.91701 -0.0593777 0.0
1.90417 -0.0577564 0.0
1.89153 -0.0561949 0.0
1.87909 -0.0546906 0.0
1.86685 -0.0532413 0.0
1.85482 -0.0518445 0.0
1.843 -0.0504982 0.0
1.83138 -0.0492002 0.0
1.81996 -0.0479484 0.0
1.80874 -0.0467409 0.0
1.79772 -0.0455759 0.0
1.78689 -0.0444516 0.0
1.77626 -0.0433662 0.0
1.76582 -0.0423181 0.0
1.75557 -0.0413057 0.0
1.7455 -0.0403276 0.0
1.73562 -0.0393822 0.0
1.72591 -0.0384681 0.0
1.71638 -0.0375841 0.0
1.70702 -0.0367289 0.0
1.69783 -0.0359011 0.0
1.68881 -0.0350998 0.0
1.67995 -0.0343236 0.0
1.67125 -0.0335716 0.0
1.6627 -0.0328426 0.0
1.65431 -0.0321357 0.0
1.64607 -0.0314498 0.0
1.63797 -0.0307841 0.0
1.63001 -0.0301375 0.0
1.6222 -0.0295092 0.0
1.61453 -0.0288984 0.0
1.60698 -0.0283041 0.0
1.59958 -0.0277255 0.0
1.5923 -0.0271619 0.0
1.58514 -0.0266124 0.0
1.57812 -0.0260764 0.0
1.57121 -0.025553 0.0
1.56442 -0.0250416 0.0
1.55776 -0.0245416 0.0
1.5512 -0.0240525 0.0
1.54477 -0.0235738 0.0
1.53844 -0.0231052 0.0
1.53223 -0.0226471 0.0
1.52613 -0.0221992 0.0
1.52014 -0.0217631 0.0
1.51426 -0.02134 0.0
1.50849 -0.0209321 0.0
1.50284 -0.0205466 0.0
1.4973 -0.0201787 0.0
1.4919 -0.0198652 0.0
1.48665 -0.0195441 0.0
1.48155 -0.0193936 0.0
1.47672 -0.0190445 0.0
1.47205 -0.0193165 0.0
2 -0.0159622 0.0
2.00438 -0.0469889 0.0
2.01693 -0.0749255 0.0
2.03576 -0.0983986 0.0
2.05854 -0.116929 0.0
2.08311 -0.130726 0.0
2.10783 -0.140403 0.0
2.13156 -0.14673 0.0
2.15365 -0.150465 0.0
2.17377 -0.152268 0.0
2.1918 -0.152669 0.0
2.20777 -0.15207 0.0
2.22174 -0.150765 0.0
2.23381 -0.148964 0.0
2.24408 -0.146815 0.0
2.25264 -0.144422 0.0
2.2596 -0.141859 0.0
2.26504 -0.139177 0.0
2.26904 -0.136417 0.0
2.2717 -0.133606 0.0
2.27309 -0.130766 0.0
2.2733 -0.127913 0.0
2.2724 -0.125062 0.0
2.27048 -0.122223 0.0
2.26761 -0.119405 0.0
2.26387 -0.116614 0.0
2.25933 -0.113858 0.0
2.25405 -0.111141 0.0
2.24811 -0.108467 0.0
2.24158 -0.10584 0.0
2.2345 -0.103262 0.0
2.22694 -0.100737 0.0
2.21894 -0.0982646 0.0
2.21057 -0.0958477 0.0
2.20186 -0.0934868 0.0
2.19287 -0.0911827 0.0
2.18362 -0.0889357 0.0
2.17416 -0.0867459 0.0
2.16451 -0.0846132 0.0
2.15472 -0.0825372 0.0
2.1448 -0.0805175 0.0
2.1348 -0.0785534 0.0
2.12471 -0.0766442 0.0
2.11458 -0.0747888 0.0
2.10442 -0.0729865 0.0
2.09424 -0.071236 0.0
2.08407 -0.0695363 0.0
2.07391 -0.0678863 0.0
2.06378 -0.0662847 0.0
2.05369 -0.0647302 0.0
2.04365 -0.0632218 0.0
2.03367 -0.061758 0.0
2.02376 -0.0603377 0.0
2.01392 -0.0589596 0.0
2.00416 -0.0576224 0.0
1.99448 -0.0563249 0.0
1.9849 -0.0550659 0.0
1.97541 -0.0538441 0.0
1.96602 -0.0526584 0.0
1.95672 -0.0515076 0.0
1.94753 -0.0503906 0.0
1.93845 -0.0493062 0.0
1.92947 -0.0482533 0.0
1.9206 -0.0472309 0.0
1.91184 -0.0462378 0.0
1.90318 -0.0452731 0.0
1.89464 -0.0443358 0.0
1.8862 -0.0434248 0.0
1.87788 -0.0425392 0.0
1.86966 -0.0416781 0.0
1.86156 -0.0408405 0.0
1.85356 -0.0400256 0.0
1.84567 -0.0392323 0.0
1.83789 -0.03846 0.0
1.83021 -0.0377076 0.0
1.82264 -0.0369744 0.0
1.81518 -0.0362595 0.0
1.80782 -0.0355621 0.0
1.80056 -0.0348814 0.0
1.7934 -0.0342165 0.0
1.78635 -0.0335668 0.0
1.77939 -0.0329313 0.0
1.77254 -0.0323094 0.0
1.76578 -0.0317001 0.0
1.75912 -0.0311031 0.0
1.75256 -0.0305172 0.0
1.7461 -0.0299425 0.0
1.73973 -0.0293773 0.0
1.73346 -0.028823 0.0
1.72728 -0.0282766 0.0
1.7212 -0.0277425 0.0
1.71522 -0.0272143 0.0
1.70935 -0.0267031 0.0
1.70358 -0.0261939 0.0
1.69793 -0.025712 0.0
1.6924 -0.0252227 0.0
1.68704 -0.0247774 0.0
1.68181 -0.0242979 0.0
1.6769 -0.0238787 0.0
1.67207 -0.023342 0.0
2 -0.0128911 0.0
2.00307 -0.0380996 0.0
2.01196 -0.0612932 0.0
2.02559 -0.081462 0.0
2.04253 -0.0981216 0.0
2.06134 -0.111247 0.0
2.08082 -0.12113 0.0
2.10009 -0.128231 0.0
2.11859 -0.133062 0.0
2.13599 -0.136107 0.0
2.15215 -0.137786 0.0
2.16704 -0.138442 0.0
2.18066 -0.13834 0.0
2.19309 -0.137683 0.0
2.20437 -0.136619 0.0
2.21457 -0.135259 0.0
2.22373 -0.133682 0.0
2.23191 -0.131947 0.0
2.23914 -0.130096 0.0
2.24546 -0.128161 0.0
2.2509 -0.126166 0.0
2.2555 -0.124128 0.0
2.25929 -0.12206 0.0
2.26229 -0.119973 0.0
2.26454 -0.117876 0.0
2.26607 -0.115775 0.0
2.26691 -0.113676 0.0
2.26709 -0.111583 0.0
2.26665 -0.109501 0.0
2.26561 -0.107433 0.0
2.26402 -0.105382 0.0
2.2619 -0.103351 0.0
2.25929 -0.101341 0.0
2.25621 -0.0993561 0.0
2.2527 -0.0973966 0.0
2.24879 -0.0954646 0.0
2.24451 -0.0935615 0.0
2.23988 -0.0916885 0.0
2.23494 -0.0898464 0.0
2.22971 -0.0880363 0.0
2.22421 -0.0862588 0.0
2.21847 -0.0845145 0.0
2.21251 -0.0828037 0.0
2.20635 -0.0811268 0.0
2.20001 -0.079484 0.0
2.19351 -0.0778753 0.0
2.18687 -0.0763007 0.0
2.18011 -0.0747602 0.0
2.17323 -0.0732535 0.0
2.16626 -0.0717805 0.0
2.15921 -0.0703408 0.0
2.15209 -0.068934 0.0
2.14492 -0.0675598 0.0
2.1377 -0.0662176 0.0
2.13044 -0.0649071 0.0
2.12315 -0.0636276 0.0
2.11585 -0.0623787 0.0
2.10854 -0.0611597 0.0
2.10122 -0.05997 0.0
2.09391 -0.0588091 0.0
2.08661 -0.0576762 0.0
2.07932 -0.0565708 0.0
2.07206 -0.0554922 0.0
2.06482 -0.0544397 0.0
2.05761 -0.0534126 0.0
2.05044 -0.0524104 0.0
2.0433 -0.0514323 0.0
2.0362 -0.0504775 0.0
2.02915 -0.0495456 0.0
2.02214 -0.0486357 0.0
2.01519 -0.0477472 0.0
2.00828 -0.0468794 0.0
2.00143 -0.0460316 0.0
1.99463 -0.0452031 0.0
1.98788 -0.0443932 0.0
1.9812 -0.0436013 0.0
1.97457 -0.0428266 0.0
1.968 -0.0420684 0.0
1.9615 -0.041326 0.0
1.95505 -0.0405987 0.0
1.94867 -0.0398857 0.0
1.94235 -0.0391863 0.0
1.9361 -0.0384998 0.0
1.92991 -0.0378252 0.0
1.92378 -0.0371623 0.0
1.91772 -0.0365093 0.0
1.91173 -0.035867 0.0
1.90581 -0.0352321 0.0
1.89995 -0.034608 0.0
1.89417 -0.0339868 0.0
1.88846 -0.0333793 0.0
1.88282 -0.0327654 0.0
1.87727 -0.0321752 0.0
1.8718 -0.0315551 0.0
1.86643 -0.0309884 0.0
1.86116 -0.030326 0.0
1.85605 -0.0298022 0.0
1.85103 -0.0289909 0.0
1.84634 -0.0285713 0.0
1.84164 -0.02729 0.0
2 -0.0106495 0.0
2.00224 -0.0315637 0.0
2.00878 -0.0511102 0.0
2.01896 -0.0685465 0.0
2.03188 -0.0834463 0.0
2.04655 -0.0956857 0.0
2.06211 -0.105376 0.0
2.07787 -0.112777 0.0
2.09332 -0.118219 0.0
2.10816 -0.122049 0.0
2.12222 -0.124585 0.0
2.13542 -0.126108 0.0
2.14776 -0.126847 0.0
2.15925 -0.126989 0.0
2.16994 -0.126677 0.0
2.17989 -0.126023 0.0
2.18912 -0.125113 0.0
2.19769 -0.124009 0.0
2.20563 -0.122761 0.0
2.21296 -0.121405 0.0
2.21972 -0.119968 0.0
2.22592 -0.118472 0.0
2.23157 -0.116932 0.0
2.2367 -0.115359 0.0
2.24132 -0.113764 0.0
2.24543 -0.112154 0.0
2.24905 -0.110534 0.0
2.25219 -0.108908 0.0
2.25487 -0.10728 0.0
2.25709 -0.105654 0.0
2.25887 -0.104032 0.0
2.26022 -0.102415 0.0
2.26115 -0.100807 0.0
2.26169 -0.099208 0.0
2.26184 -0.0976201 0.0
2.26161 -0.0960445 0.0
2.26103 -0.0944825 0.0
2.26011 -0.0929351 0.0
2.25887 -0.0914034 0.0
2.25731 -0.0898883 0.0
2.25546 -0.0883905 0.0
2.25332 -0.086911 0.0
2.25093 -0.0854503 0.0
2.24828 -0.084009 0.0
2.2454 -0.0825877 0.0
2.2423 -0.0811868 0.0
2.23898 -0.0798068 0.0
2.23548 -0.0784479 0.0
2.23179 -0.0771106 0.0
2.22793 -0.0757949 0.0
2.22392 -0.074501 0.0
2.21976 -0.0732291 0.0
2.21546 -0.0719792 0.0
2.21104 -0.0707514 0.0
2.20651 -0.0695456 0.0
2.20187 -0.0683618 0.0
2.19714 -0.0671998 0.0
2.19232 -0.0660595 0.0
2.18742 -0.0649407 0.0
2.18245 -0.0638433 0.0
2.17741 -0.0627671 0.0
2.17232 -0.0617116 0.0
2.16718 -0.0606768 0.0
2.162 -0.0596622 0.0
2.15677 -0.0586675 0.0
2.15152 -0.0576924 0.0
2.14624 -0.0567366 0.0
2.14093 -0.0557995 0.0