# vtk DataFile Version 3.0
Channel Flow Simulation
ASCII
DATASET STRUCTURED_GRID
DIMENSIONS 100 100 1
POINTS 10000 float
0.005 0.995 0.0
0.015 0.995 0.0
0.025 0.995 0.0
0.035 0.995 0.0
0.045 0.995 0.0
0.055 0.995 0.0
0.065 0.995 0.0
0.075 0.995 0.0
0.085 0.995 0.0
0.095 0.995 0.0
0.105 0.995 0.0
0.115 0.995 0.0
0.125 0.995 0.0
0.135 0.995 0.0
0.145 0.995 0.0
0.155 0.995 0.0
0.165 0.995 0.0
0.175 0.995 0.0
0.185 0.995 0.0
0.195 0.995 0.0
0.205 0.995 0.0
0.215 0.995 0.0
0.225 0.995 0.0
0.235 0.995 0.0
0.245 0.995 0.0
0.255 0.995 0.0
0.265 0.995 0.0
0.275 0.995 0.0
0.285 0.995 0.0
0.295 0.995 0.0
0.305 0.995 0.0
0.315 0.995 0.0
0.325 0.995 0.0
0.335 0.995 0.0
0.345 0.995 0.0
0.355 0.995 0.0
0.365 0.995 0.0
0.375 0.995 0.0
0.385 0.995 0.0
0.395 0.995 0.0
0.405 0.995 0.0
0.415 0.995 0.0
0.425 0.995 0.0
0.435 0.995 0.0
0.445 0.995 0.0
0.455 0.995 0.0
0.465 0.995 0.0
0.475 0.995 0.0
0.485 0.995 0.0
0.495 0.995 0.0
0.505 0.995 0.0
0.515 0.995 0.0
0.525 0.995 0.0
0.535 0.995 0.0
0.545 0.995 0.0
0.555 0.995 0.0
0.565 0.995 0.0
0.575 0.995 0.0
0.585 0.995 0.0
0.595 0.995 0.0
0.605 0.995 0.0
0.615 0.995 0.0
0.625 0.995 0.0
0.635 0.995 0.0
0.645 0.995 0.0
0.655 0.995 0.0
0.665 0.995 0.0
0.675 0.995 0.0
0.685 0.995 0.0
0.695 0.995 0.0
0.705 0.995 0.0
0.715 0.995 0.0
0.725 0.995 0.0
0.735 0.995 0.0
0.745 0.995 0.0
0.755 0.995 0.0
0.765 0.995 0.0
0.775 0.995 0.0
0.785 0.995 0.0
0.795 0.995 0.0
0.805 0.995 0.0
0.815 0.995 0.0
0.825 0.995 0.0
0.835 0.995 0.0
0.845 0.995 0.0
0.855 0.995 0.0
0.865 0.995 0.0
0.875 0.995 0.0
0.885 0.995 0.0
0.895 0.995 0.0
0.905 0.995 0.0
0.915 0.995 0.0
0.925 0.995 0.0
0.935 0.995 0.0
0.945 0.995 0.0
0.955 0.995 0.0
0.965 0.995 0.0
0.975 0.995 0.0
0.985 0.995 0.0
0.995 0.995 0.0
0.005 0.985 0.0
0.015 0.985 0.0
0.025 0.985 0.0
0.035 0.985 0.0
0.045 0.985 0.0
0.055 0.985 0.0
0.065 0.985 0.0
0.075 0.985 0.0
0.085 0.985 0.0
0.095 0.985 0.0
0.105 0.985 0.0
0.115 0.985 0.0
0.125 0.985 0.0
0.135 0.985 0.0
0.145 0.985 0.0
0.155 0.985 0.0
0.165 0.985 0.0
0.175 0.985 0.0
0.185 0.985 0.0
0.195 0.985 0.0
0.205 0.985 0.0
0.215 0.985 0.0
0.225 0.985 0.0
0.235 0.985 0.0
0.245 0.985 0.0
0.255 0.985 0.0
0.265 0.985 0.0
0.275 0.985 0.0
0.285 0.985 0.0
0.295 0.985 0.0
0.305 0.985 0.0
0.315 0.985 0.0
0.325 0.985 0.0
0.335 0.985 0.0
0.345 0.985 0.0
0.355 0.985 0.0
0.365 0.985 0.0
0.375 0.985 0.0
0.385 0.985 0.0
0.395 0.985 0.0
0.405 0.985 0.0
0.415 0.985 0.0
0.425 0.985 0.0
0.435 0.985 0.0
0.445 0.985 0.0
0.455 0.985 0.0
0.465 0.985 0.0
0.475 0.985 0.0
0.485 0.985 0.0
0.495 0.985 0.0
0.505 0.985 0.0
0.515 0.985 0.0
0.525 0.985 0.0
0.535 0.985 0.0
0.545 0.985 0.0
0.555 0.985 0.0
0.565 0.985 0.0
0.575 0.985 0.0
0.585 0.985 0.0
0.595 0.985 0.0
0.605 0.985 0.0
0.615 0.985 0.0
0.625 0.985 0.0
0.635 0.985 0.0
0.645 0.985 0.0
0.655 0.985 0.0
0.665 0.985 0.0
0.675 0.985 0.0
0.685 0.985 0.0
0.695 0.985 0.0
0.705 0.985 0.0
0.715 0.985 0.0
0.725 0.985 0.0
0.735 0.985 0.0
0.745 0.985 0.0
0.755 0.985 0.0
0.765 0.985 0.0
0.775 0.985 0.0
0.785 0.985 0.0
0.795 0.985 0.0
0.805 0.985 0.0
0.815 0.985 0.0
0.825 0.985 0.0
0.835 0.985 0.0
0.845 0.985 0.0
0.855 0.985 0.0
0.865 0.985 0.0
0.875 0.985 0.0
0.885 0.985 0.0
0.895 0.985 0.0
0.905 0.985 0.0
0.915 0.985 0.0
0.925 0.985 0.0
0.935 0.985 0.0
0.945 0.985 0.0
0.955 0.985 0.0
0.965 0.985 0.0
0.975 0.985 0.0
0.985 0.985 0.0
0.995 0.985 0.0
0.005 0.975 0.0
0.015 0.975 0.0
0.025 0.975 0.0
0.035 0.975 0.0
0.045 0.975 0.0
0.055 0.975 0.0
0.065 0.975 0.0
0.075 0.975 0.0
0.085 0.975 0.0
0.095 0.975 0.0
0.105 0.975 0.0
0.115 0.975 0.0
0.125 0.975 0.0
0.135 0.975 0.0
0.145 0.975 0.0
0.155 0.975 0.0
0.165 0.975 0.0
0.175 0.975 0.0
0.185 0.975 0.0
0.195 0.975 0.0
0.205 0.975 0.0
0.215 0.975 0.0
0.225 0.975 0.0
0.235 0.975 0.0
0.245 0.975 0.0
0.255 0.975 0.0
0.265 0.975 0.0
0.275 0.975 0.0
0.285 0.975 0.0
0.295 0.975 0.0
0.305 0.975 0.0
0.315 0.975 0.0
0.325 0.975 0.0
0.335 0.975 0.0
0.345 0.975 0.0
0.355 0.975 0.0
0.365 0.975 0.0
0.375 0.975 0.0
0.385 0.975 0.0
0.395 0.975 0.0
0.405 0.975 0.0
0.415 0.975 0.0
0.425 0.975 0.0
0.435 0.975 0.0
0.445 0.975 0.0
0.455 0.975 0.0
0.465 0.975 0.0
0.475 0.975 0.0
0.485 0.975 0.0
0.495 0.975 0.0
0.505 0.975 0.0
0.515 0.975 0.0
0.525 0.975 0.0
0.535 0.975 0.0
0.545 0.975 0.0
0.555 0.975 0.0
0.565 0.975 0.0
0.575 0.975 0.0
0.585 0.975 0.0
0.595 0.975 0.0
0.605 0.975 0.0
0.615 0.975 0.0
0.625 0.975 0.0
0.635 0.975 0.0
0.645 0.975 0.0
0.655 0.975 0.0
0.665 0.975 0.0
0.675 0.975 0.0
0.685 0.975 0.0
0.695 0.975 0.0
0.705 0.975 0.0
0.715 0.975 0.0
0.725 0.975 0.0
0.735 0.975 0.0
0.745 0.975 0.0
0.755 0.975 0.0
0.765 0.975 0.0
0.775 0.975 0.0
0.785 0.975 0.0
0.795 0.975 0.0
0.805 0.975 0.0
0.815 0.975 0.0
0.825 0.975 0.0
0.835 0.975 0.0
0.845 0.975 0.0
0.855 0.975 0.0
0.865 0.975 0.0
0.875 0.975 0.0
0.885 0.975 0.0
0.895 0.975 0.0
0.905 0.975 0.0
0.915 0.975 0.0
0.925 0.975 0.0
0.935 0.975 0.0
0.945 0.975 0.0
0.955 0.975 0.0
0.965 0.975 0.0
0.975 0.975 0.0
0.985 0.975 0.0
0.995 0.975 0.0
0.005 0.965 0.0
0.015 0.965 0.0
0.025 0.965 0.0
0.035 0.965 0.0
0.045 0.965 0.0
0.055 0.965 0.0
0.065 0.965 0.0
0.075 0.965 0.0
0.085 0.965 0.0
0.095 0.965 0.0
0.105 0.965 0.0
0.115 0.965 0.0
0.125 0.965 0.0
0.135 0.965 0.0
0.145 0.965 0.0
0.155 0.965 0.0
0.165 0.965 0.0
0.175 0.965 0.0
0.185 0.965 0.0
0.195 0.965 0.0
0.205 0.965 0.0
0.215 0.965 0.0
0.225 0.965 0.0
0.235 0.965 0.0
0.245 0.965 0.0
0.255 0.965 0.0
0.265 0.965 0.0
0.275 0.965 0.0
0.285 0.965 0.0
0.295 0.965 0.0
0.305 0.965 0.0
0.315 0.965 0.0
0.325 0.965 0.0
0.335 0.965 0.0
0.345 0.965 0.0
0.355 0.965 0.0
0.365 0.965 0.0
0.375 0.965 0.0
0.385 0.965 0.0
0.395 0.965 0.0
0.405 0.965 0.0
0.415 0.965 0.0
0.425 0.965 0.0
0.435 0.965 0.0
0.445 0.965 0.0
0.455 0.965 0.0
0.465 0.965 0.0
0.475 0.965 0.0
0.485 0.965 0.0
0.495 0.965 0.0
0.505 0.965 0.0
0.515 0.965 0.0
0.525 0.965 0.0
0.535 0.965 0.0
0.545 0.965 0.0
0.555 0.965 0.0
0.565 0.965 0.0
0.575 0.965 0.0
0.585 0.965 0.0
0.595 0.965 0.0
0.605 0.965 0.0
0.615 0.965 0.0
0.625 0.965 0.0
0.635 0.965 0.0
0.645 0.965 0.0
0.655 0.965 0.0
0.665 0.965 0.0
0.675 0.965 0.0
0.685 0.965 0.0
0.695 0.965 0.0
0.705 0.965 0.0
0.715 0.965 0.0
0.725 0.965 0.0
0.735 0.965 0.0
0.745 0.965 0.0
0.755 0.965 0.0
0.765 0.965 0.0
0.775 0.965 0.0
0.785 0.965 0.0
0.795 0.965 0.0
0.805 0.965 0.0
0.815 0.965 0.0
0.825 0.965 0.0
0.835 0.965 0.0
0.845 0.965 0.0
0.855 0.965 0.0
0.865 0.965 0.0
0.875 0.965 0.0
0.885 0.965 0.0
0.895 0.965 0.0
0.905 0.965 0.0
0.915 0.965 0.0
0.925 0.965 0.0
0.935 0.965 0.0
0.945 0.965 0.0
0.955 0.965 0.0
0.965 0.965 0.0
0.975 0.965 0.0
0.985 0.965 0.0
0.995 0.965 0.0
0.005 0.955 0.0
0.015 0.955 0.0
0.025 0.955 0.0
0.035 0.955 0.0
0.045 0.955 0.0
0.055 0.955 0.0
0.065 0.955 0.0
0.075 0.955 0.0
0.085 0.955 0.0
0.095 0.955 0.0
0.105 0.955 0.0
0.115 0.955 0.0
0.125 0.955 0.0
0.135 0.955 0.0
0.145 0.955 0.0
0.155 0.955 0.0
0.165 0.955 0.0
0.175 0.955 0.0
0.185 0.955 0.0
0.195 0.955 0.0
0.205 0.955 0.0
0.215 0.955 0.0
0.225 0.955 0.0
0.235 0.955 0.0
0.245 0.955 0.0
0.255 0.955 0.0
0.265 0.955 0.0
0.275 0.955 0.0
0.285 0.955 0.0
0.295 0.955 0.0
0.305 0.955 0.0
0.315 0.955 0.0
0.325 0.955 0.0
0.335 0.955 0.0
0.345 0.955 0.0
0.355 0.955 0.0
0.365 0.955 0.0
0.375 0.955 0.0
0.385 0.955 0.0
0.395 0.955 0.0
0.405 0.955 0.0
0.415 0.955 0.0
0.425 0.955 0.0
0.435 0.955 0.0
0.445 0.955 0.0
0.455 0.955 0.0
0.465 0.955 0.0
0.475 0.955 0.0
0.485 0.955 0.0
0.495 0.955 0.0
0.505 0.955 0.0
0.515 0.955 0.0
0.525 0.955 0.0
0.535 0.955 0.0
0.545 0.955 0.0
0.555 0.955 0.0
0.565 0.955 0.0
0.575 0.955 0.0
0.585 0.955 0.0
0.595 0.955 0.0
0.605 0.955 0.0
0.615 0.955 0.0
0.625 0.955 0.0
0.635 0.955 0.0
0.645 0.955 0.0
0.655 0.955 0.0
0.665 0.955 0.0
0.675 0.955 0.0
0.685 0.955 0.0
0.695 0.955 0.0
0.705 0.955 0.0
0.715 0.955 0.0
0.725 0.955 0.0
0.735 0.955 0.0
0.745 0.955 0.0
0.755 0.955 0.0
0.765 0.955 0.0
0.775 0.955 0.0
0.785 0.955 0.0
0.795 0.955 0.0
0.805 0.955 0.0
0.815 0.955 0.0
0.825 0.955 0.0
0.835 0.955 0.0
0.845 0.955 0.0
0.855 0.955 0.0
0.865 0.955 0.0
0.875 0.955 0.0
0.885 0.955 0.0
0.895 0.955 0.0
0.905 0.955 0.0
0.915 0.955 0.0
0.925 0.955 0.0
0.935 0.955 0.0
0.945 0.955 0.0
0.955 0.955 0.0
0.965 0.955 0.0
0.975 0.955 0.0
0.985 0.955 0.0
0.995 0.955 0.0
0.005 0.945 0.0
0.015 0.945 0.0
0.025 0.945 0.0
0.035 0.945 0.0
0.045 0.945 0.0
0.055 0.945 0.0
0.065 0.945 0.0
0.075 0.945 0.0
0.085 0.945 0.0
0.095 0.945 0.0
0.105 0.945 0.0
0.115 0.945 0.0
0.125 0.945 0.0
0.135 0.945 0.0
0.145 0.945 0.0
0.155 0.945 0.0
0.165 0.945 0.0
0.175 0.945 0.0
0.185 0.945 0.0
0.195 0.945 0.0
0.205 0.945 0.0
0.215 0.945 0.0
0.225 0.945 0.0
0.235 0.945 0.0
0.245 0.945 0.0
0.255 0.945 0.0
0.265 0.945 0.0
0.275 0.945 0.0
0.285 0.945 0.0
0.295 0.945 0.0
0.305 0.945 0.0
0.315 0.945 0.0
0.325 0.945 0.0
0.335 0.945 0.0
0.345 0.945 0.0
0.355 0.945 0.0
0.365 0.945 0.0
0.375 0.945 0.0
0.385 0.945 0.0
0.395 0.945 0.0
0.405 0.945 0.0
0.415 0.945 0.0
0.425 0.945 0.0
0.435 0.945 0.0
0.445 0.945 0.0
0.455 0.945 0.0
0.465 0.945 0.0
0.475 0.945 0.0
0.485 0.945 0.0
0.495 0.945 0.0
0.505 0.945 0.0
0.515 0.945 0.0
0.525 0.945 0.0
0.535 0.945 0.0
0.545 0.945 0.0
0.555 0.945 0.0
0.565 0.945 0.0
0.575 0.945 0.0
0.585 0.945 0.0
0.595 0.945 0.0
0.605 0.945 0.0
0.615 0.945 0.0
0.625 0.945 0.0
0.635 0.945 0.0
0.645 0.945 0.0
0.655 0.945 0.0
0.665 0.945 0.0
0.675 0.945 0.0
0.685 0.945 0.0
0.695 0.945 0.0
0.705 0.945 0.0
0.715 0.945 0.0
0.725 0.945 0.0
0.735 0.945 0.0
0.745 0.945 0.0
0.755 0.945 0.0
0.765 0.945 0.0
0.775 0.945 0.0
0.785 0.945 0.0
0.795 0.945 0.0
0.805 0.945 0.0
0.815 0.945 0.0
0.825 0.945 0.0
0.835 0.945 0.0
0.845 0.945 0.0
0.855 0.945 0.0
0.865 0.945 0.0
0.875 0.945 0.0
0.885 0.945 0.0
0.895 0.945 0.0
0.905 0.945 0.0
0.915 0.945 0.0
0.925 0.945 0.0
0.935 0.945 0.0
0.945 0.945 0.0
0.955 0.945 0.0
0.965 0.945 0.0
0.975 0.945 0.0
0.985 0.945 0.0
0.995 0.945 0.0
0.005 0.935 0.0
0.015 0.935 0.0
0.025 0.935 0.0
0.035 0.935 0.0
0.045 0.935 0.0
0.055 0.935 0.0
0.065 0.935 0.0
0.075 0.935 0.0
0.085 0.935 0.0
0.095 0.935 0.0
0.105 0.935 0.0
0.115 0.935 0.0
0.125 0.935 0.0
0.135 0.935 0.0
0.145 0.935 0.0
0.155 0.935 0.0
0.165 0.935 0.0
[...]
POINT_DATA 10000
VECTORS velocity float
0 0.153075 0.0
0.153075 0.139332 0.0
0.292407 0.104355 0.0
0.396762 0.0775695 0.0
0.474332 0.0587877 0.0
0.533119 0.0455474 0.0
0.578667 0.0360195 0.0
0.614686 0.029022 0.0
0.643708 0.0237958 0.0
0.667504 0.019842 0.0
0.687346 0.0168226 0.0
0.704169 0.0145016 0.0
0.71867 0.0127097 0.0
0.73138 0.0113217 0.0
0.742702 0.0102438 0.0
0.752946 0.00940386 0.0
0.762349 0.008746 0.0
0.771095 0.00822648 0.0
0.779322 0.0078109 0.0
0.787133 0.0074722 0.0
0.794605 0.00718915 0.0
0.801794 0.00694519 0.0
0.808739 0.00672752 0.0
0.815467 0.00652639 0.0
0.821993 0.00633449 0.0
0.828328 0.0061465 0.0
0.834474 0.00595869 0.0
0.840433 0.00576855 0.0
0.846202 0.00557459 0.0
0.851776 0.00537607 0.0
0.857152 0.00517282 0.0
0.862325 0.00496513 0.0
0.86729 0.00475358 0.0
0.872044 0.00453896 0.0
0.876583 0.00432221 0.0
0.880905 0.00410432 0.0
0.885009 0.00388632 0.0
0.888896 0.00366919 0.0
0.892565 0.0034539 0.0
0.896019 0.00324132 0.0
0.89926 0.00303225 0.0
0.902292 0.00282738 0.0
0.90512 0.00262733 0.0
0.907747 0.00243259 0.0
0.910179 0.00224359 0.0
0.912423 0.00206065 0.0
0.914484 0.001884 0.0
0.916368 0.0017138 0.0
0.918082 0.00155016 0.0
0.919632 0.00139309 0.0
0.921025 0.00124258 0.0
0.922267 0.00109856 0.0
0.923366 0.000960929 0.0
0.924327 0.00082955 0.0
0.925156 0.000704261 0.0
0.925861 0.000584877 0.0
0.926446 0.000471197 0.0
0.926917 0.000363002 0.0
0.92728 0.000260058 0.0
0.92754 0.000162117 0.0
0.927702 6.89097e-05 0.0
0.927771 -1.98532e-05 0.0
0.927751 -0.000104489 0.0
0.927646 -0.00018535 0.0
0.927461 -0.000262837 0.0
0.927198 -0.000337408 0.0
0.926861 -0.000409598 0.0
0.926451 -0.000480042 0.0
0.925971 -0.000549498 0.0
0.925422 -0.000618879 0.0
0.924803 -0.000689297 0.0
0.924114 -0.000762107 0.0
0.923351 -0.000838966 0.0
0.922512 -0.000921912 0.0
0.921591 -0.00101344 0.0
0.920577 -0.00111664 0.0
0.91946 -0.00123527 0.0
0.918225 -0.001374 0.0
0.916851 -0.00153852 0.0
0.915313 -0.00173585 0.0
0.913577 -0.0019746 0.0
0.911602 -0.00226531 0.0
0.909337 -0.00262092 0.0
0.906716 -0.00305724 0.0
0.903659 -0.00359371 0.0
0.900065 -0.00425412 0.0
0.895811 -0.00506804 0.0
0.890743 -0.00607207 0.0
0.884671 -0.00731348 0.0
0.877357 -0.00885289 0.0
0.868504 -0.0107764 0.0
0.857728 -0.0132042 0.0
0.844524 -0.0163397 0.0
0.828184 -0.0205079 0.0
0.807676 -0.0264029 0.0
0.781273 -0.0353488 0.0
0.745924 -0.0509886 0.0
0.694936 -0.0823135 0.0
0.612622 -0.164062 0.0
0.44856 -0.44856 0.0
0 0.110789 0.0
-0.0422862 0.151906 0.0
-0.0297122 0.141804 0.0
0.00773641 0.121683 0.0
0.0518495 0.102403 0.0
0.0954649 0.0862165 0.0
0.136134 0.073118 0.0
0.173232 0.062619 0.0
0.206829 0.0542139 0.0
0.237248 0.04748 0.0
0.264885 0.0420823 0.0
0.290145 0.037757 0.0
0.313401 0.0342942 0.0
0.334985 0.031525 0.0
0.355188 0.0293117 0.0
0.374256 0.0275412 0.0
0.392394 0.0261198 0.0
0.409767 0.0249701 0.0
0.426511 0.0240281 0.0
0.442728 0.0232416 0.0
0.458498 0.0225677 0.0
0.473876 0.0219722 0.0
0.488903 0.0214279 0.0
0.503603 0.0209136 0.0
0.517991 0.0204131 0.0
0.532069 0.0199144 0.0
0.545837 0.0194092 0.0
0.559288 0.0188917 0.0
0.572411 0.0183584 0.0
0.585195 0.0178079 0.0
0.597626 0.0172398 0.0
0.609693 0.0166549 0.0
0.621383 0.016055 0.0
0.632685 0.0154421 0.0
0.643588 0.0148187 0.0
0.654084 0.0141876 0.0
0.664167 0.0135516 0.0
0.673833 0.0129134 0.0
0.683077 0.0122758 0.0
0.691899 0.0116412 0.0
0.700299 0.011012 0.0
0.708278 0.0103904 0.0
0.715841 0.00977823 0.0
0.722992 0.00917718 0.0
0.729737 0.00858867 0.0
0.736082 0.00801388 0.0
0.742035 0.00745381 0.0
0.747605 0.00690921 0.0
0.7528 0.00638067 0.0
0.757631 0.00586859 0.0
0.762107 0.00537323 0.0
0.766237 0.0048947 0.0
0.770033 0.00443301 0.0
0.773505 0.00398805 0.0
0.776664 0.00355963 0.0
0.779519 0.00314747 0.0
0.782082 0.00275125 0.0
0.784362 0.00237055 0.0
0.786369 0.00200492 0.0
0.788114 0.00165385 0.0
0.789606 0.00131676 0.0
0.790854 0.000992998 0.0
0.791867 0.000681843 0.0
0.792653 0.000382462 0.0
0.793221 9.39001e-05 0.0
0.793578 -0.000184961 0.0
0.79373 -0.000455439 0.0
0.793684 -0.00071911 0.0
0.793445 -0.000977873 0.0
0.793017 -0.00123403 0.0
0.792402 -0.0014904 0.0
0.791601 -0.00175044 0.0
0.790612 -0.00201838 0.0
0.789433 -0.00229944 0.0
0.788055 -0.00260008 0.0
0.786469 -0.00292823 0.0
0.784657 -0.00329371 0.0
0.782599 -0.00370864 0.0
0.780264 -0.00418794 0.0
0.777615 -0.00475006 0.0
0.7746 -0.00541775 0.0
0.771157 -0.00621906 0.0
0.767203 -0.00718862 0.0
0.762636 -0.00836917 0.0
0.757324 -0.00981362 0.0
0.751104 -0.0115875 0.0
0.74377 -0.013773 0.0
0.735066 -0.016473 0.0
0.724665 -0.0198204 0.0
0.712158 -0.0239884 0.0
0.697022 -0.0292152 0.0
0.678583 -0.0358379 0.0
0.65595 -0.0443808 0.0
0.627909 -0.0556922 0.0
0.592724 -0.0713348 0.0
0.547792 -0.0943282 0.0
0.488813 -0.131384 0.0
0.408417 -0.199583 0.0
0.291147 -0.353041 0.0
0.102168 -0.550729 0.0
0 0.0747049 0.0
-0.0360837 0.12739 0.0
-0.0605996 0.135 0.0
-0.0674032 0.126939 0.0
-0.0621465 0.114845 0.0
-0.0497042 0.102725 0.0
-0.0331955 0.0918172 0.0
-0.0144962 0.082404 0.0
0.00528877 0.0744455 0.0
0.0255204 0.0678 0.0
0.0458404 0.0623013 0.0
0.0660594 0.057786 0.0
0.0860884 0.0541017 0.0
0.105896 0.0511105 0.0
0.125481 0.0486887 0.0
0.144859 0.0467269 0.0
0.164044 0.0451292 0.0
0.183054 0.0438126 0.0
0.201896 0.0427065 0.0
0.220575 0.0417515 0.0
0.239084 0.0408987 0.0
0.257416 0.0401083 0.0
0.275552 0.0393489 0.0
0.293473 0.0385963 0.0
0.311155 0.0378325 0.0
0.328575 0.0370444 0.0
0.345705 0.0362236 0.0
0.362519 0.035365 0.0
0.378993 0.0344663 0.0
0.3951 0.0335275 0.0
0.41082 0.0325504 0.0
0.426131 0.0315378 0.0
0.441014 0.0304938 0.0
0.455452 0.0294227 0.0
0.469433 0.0283295 0.0
0.482944 0.0272192 0.0
0.495975 0.0260968 0.0
0.508521 0.0249673 0.0
0.520575 0.0238353 0.0
0.532134 0.0227053 0.0
0.543198 0.0215813 0.0
0.553767 0.020467 0.0
0.563844 0.0193657 0.0
0.573431 0.0182804 0.0
0.582535 0.0172135 0.0
0.591159 0.0161672 0.0
0.599313 0.0151433 0.0
0.607002 0.0141432 0.0
0.614236 0.0131681 0.0
0.621024 0.0122188 0.0
0.627374 0.011296 0.0
0.633297 0.0104 0.0
0.638802 0.00953108 0.0
0.6439 0.00868916 0.0
0.648601 0.00787415 0.0
0.652916 0.00708578 0.0
0.656854 0.00632365 0.0
0.660426 0.00558727 0.0
0.663643 0.00487605 0.0
0.666514 0.00418928 0.0
0.66905 0.00352616 0.0
0.671259 0.00288576 0.0
0.673152 0.00226701 0.0
0.674737 0.00166867 0.0
0.676023 0.00108927 0.0
0.677018 0.000527097 0.0
0.677731 -1.99258e-05 0.0
0.678166 -0.000554296 0.0
0.678331 -0.00107905 0.0
0.67823 -0.00159792 0.0
0.677866 -0.00211548 0.0
0.677241 -0.00263737 0.0
0.676354 -0.00317058 0.0
0.675202 -0.00372373 0.0
0.673777 -0.00430753 0.0
0.67207 -0.00493522 0.0
0.670063 -0.00562322 0.0
0.667733 -0.00639186 0.0
0.66505 -0.00726632 0.0
0.661972 -0.0082778 0.0
0.658444 -0.00946497 0.0
0.654397 -0.0108757 0.0
0.64974 -0.0125695 0.0
0.644359 -0.01462 0.0
0.638108 -0.017119 0.0
0.630803 -0.0201812 0.0
0.622209 -0.0239506 0.0
0.612032 -0.0286092 0.0
0.599896 -0.0343916 0.0
0.585324 -0.0416042 0.0
0.567708 -0.0506617 0.0
0.546262 -0.0621442 0.0
0.519956 -0.0769138 0.0
0.487423 -0.096322 0.0
0.446793 -0.122682 0.0
0.395446 -0.160251 0.0
0.329523 -0.218073 0.0
0.242835 -0.319112 0.0
0.123306 -0.489929 0.0
-0.0135822 -0.537146 0.0
0 0.0511188 0.0
-0.0235861 0.0998956 0.0
-0.0510809 0.11557 0.0
-0.070511 0.116103 0.0
-0.0813471 0.110895 0.0
-0.0852974 0.104 0.0
-0.0840221 0.0970328 0.0
-0.0788065 0.0906102 0.0
-0.0706004 0.0849491 0.0
-0.0600968 0.0800949 0.0
-0.0478019 0.0760146 0.0
-0.0340886 0.0726377 0.0
-0.0192369 0.0698761 0.0
-0.00346248 0.0676357 0.0
0.0130627 0.0658227 0.0
0.0301966 0.0643482 0.0
0.0478178 0.0631307 0.0
0.0658194 0.062098 0.0
0.0841048 0.0611876 0.0
0.102586 0.0603469 0.0
0.121181 0.0595331 0.0
0.139816 0.0587123 0.0
0.15842 0.0578585 0.0
0.176929 0.0569528 0.0
0.195286 0.0559826 0.0
0.213436 0.0549399 0.0
0.231331 0.0538213 0.0
0.248929 0.0526264 0.0
0.26619 0.0513575 0.0
0.283082 0.0500191 0.0
0.299573 0.048617 0.0
0.31564 0.0471578 0.0
0.33126 0.0456492 0.0
0.346415 0.044099 0.0
0.361091 0.042515 0.0
0.375277 0.0409052 0.0
0.388963 0.0392772 0.0
0.402143 0.0376381 0.0
0.414814 0.0359947 0.0
0.426974 0.0343533 0.0
0.438622 0.0327197 0.0
0.44976 0.0310988 0.0
0.460392 0.0294954 0.0
0.470522 0.0279132 0.0
0.480154 0.0263558 0.0
0.489297 0.024826 0.0
0.497956 0.0233262 0.0
0.506139 0.0218584 0.0
0.513854 0.0204241 0.0
0.52111 0.0190245 0.0
0.527915 0.0176603 0.0
0.53428 0.0163321 0.0
0.540212 0.0150402 0.0
0.545721 0.0137846 0.0
0.550816 0.0125651 0.0
0.555507 0.0113815 0.0
0.559803 0.0102332 0.0
0.563713 0.00911965 0.0
0.567245 0.00804009 0.0
0.570409 0.00699364 0.0
0.573213 0.00597928 0.0
0.575666 0.00499583 0.0
0.577777 0.00404192 0.0
0.579551 0.00311594 0.0
0.580999 0.00221599 0.0
0.582125 0.0013398 0.0
0.582938 0.000484629 0.0
0.583443 -0.000352861 0.0
0.583644 -0.00117676 0.0
0.583546 -0.00199212 0.0
0.583152 -0.00280518 0.0
0.582463 -0.00362368 0.0
0.581476 -0.00445724 0.0
0.58019 -0.00531779 0.0
0.578595 -0.0062202 0.0
0.576683 -0.00718293 0.0
0.574435 -0.00822893 0.0
0.571829 -0.00938674 0.0
0.568835 -0.0106918 0.0
0.565409 -0.0121882 0.0
0.561499 -0.0139306 0.0
0.557033 -0.0159873 0.0
0.551921 -0.0184428 0.0
0.546048 -0.021403 0.0
0.539265 -0.0249997 0.0
0.531384 -0.0293983 0.0
0.522167 -0.0348071 0.0
0.511311 -0.04149 0.0
0.49843 -0.0497857 0.0
0.483036 -0.0601351 0.0
0.464505 -0.0731259 0.0
0.442041 -0.0895648 0.0
0.41462 -0.110609 0.0
0.380925 -0.138006 0.0
0.339241 -0.174596 0.0
0.287327 -0.225484 0.0
0.222093 -0.301577 0.0
0.138589 -0.423241 0.0
0.0344598 -0.573401 0.0
-0.0490117 -0.488135 0.0
0 0.0355357 0.0
-0.0155831 0.0765465 0.0
-0.0389323 0.0949233 0.0
-0.059579 0.100835 0.0
-0.074847 0.100961 0.0
-0.084781 0.0987378 0.0
-0.0900436 0.0957515 0.0
-0.0913249 0.0927086 0.0
-0.0892264 0.0899205 0.0
-0.084255 0.0875135 0.0
-0.0768365 0.0855202 0.0
-0.0673309 0.0839215 0.0
-0.0560471 0.0826695 0.0
-0.0432537 0.0817013 0.0
-0.0291881 0.0809485 0.0
-0.0140622 0.0803431 0.0
0.00193272 0.0798216 0.0
0.0186236 0.079328 0.0
0.0358537 0.0788147 0.0
0.0534808 0.0782432 0.0
0.0713771 0.0775836 0.0
0.0894275 0.0768144 0.0
0.10753 0.0759212 0.0
0.125592 0.074896 0.0
0.143536 0.0737359 0.0
0.161289 0.0724423 0.0
0.178791 0.0710199 0.0
0.19599 0.0694759 0.0
0.21284 0.0678197 0.0
0.229302 0.0660618 0.0
0.245344 0.0642134 0.0
0.260941 0.0622864 0.0
0.276069 0.0602929 0.0
0.290713 0.0582445 0.0
0.304858 0.0561528 0.0
0.318496 0.0540288 0.0
0.33162 0.0518828 0.0
0.344225 0.0497246 0.0
0.356312 0.0475628 0.0
0.36788 0.0454057 0.0
0.378932 0.0432603 0.0
0.389473 0.0411332 0.0
0.399507 0.0390298 0.0
0.409042 0.0369551 0.0
0.418084 0.034913 0.0
0.426641 0.032907 0.0
0.434722 0.0309398 0.0
0.442335 0.0290137 0.0
0.449491 0.0271302 0.0
0.456197 0.0252907 0.0
0.462463 0.0234959 0.0
0.468299 0.0217463 0.0
0.473713 0.0200421 0.0
0.478715 0.0183831 0.0
0.483313 0.0167689 0.0
0.487517 0.0151992 0.0
0.491335 0.0136731 0.0
0.494775 0.0121899 0.0
0.497845 0.0107485 0.0
0.500553 0.00934781 0.0
0.502907 0.00798657 0.0
0.504915 0.00666327 0.0
0.506582 0.00537621 0.0
0.507916 0.00412343 0.0
0.508924 0.00290258 0.0
0.509611 0.00171088 0.0
0.509982 0.000544949 0.0
0.510042 -0.000599327 0.0
0.509795 -0.00172701 0.0
0.509245 -0.00284438 0.0
0.508393 -0.0039592 0.0
0.507239 -0.00508117 0.0
0.505781 -0.00622236 0.0
0.504016 -0.00739781 0.0
0.501936 -0.00862629 0.0
0.49953 -0.0099312 0.0
0.496782 -0.0113417 0.0
0.493669 -0.0128941 0.0
0.490162 -0.0146337 0.0
0.48622 -0.0166168 0.0
0.481791 -0.0189137 0.0
0.476808 -0.021612 0.0
0.471184 -0.0248208 0.0
0.464806 -0.0286769 0.0
0.457532 -0.0333509 0.0
0.449181 -0.0390575 0.0
0.439521 -0.0460667 0.0
0.428262 -0.0547209 0.0
0.415031 -0.0654572 0.0
0.399359 -0.0788401 0.0
0.380654 -0.0956108 0.0
0.358169 -0.116766 0.0
0.330968 -0.143691 0.0
0.297887 -0.178408 0.0
0.257484 -0.22411 0.0
0.207971 -0.286539 0.0
0.146916 -0.376945 0.0
0.0715479 -0.505846 0.0
-0.0110565 -0.616882 0.0
-0.0545381 -0.433597 0.0
0 0.0249654 0.0
-0.0105702 0.0582258 0.0
-0.0288909 0.0767139 0.0
-0.0471002 0.0858149 0.0
-0.0621206 0.0898898 0.0
-0.073192 0.0915486 0.0
-0.0803812 0.0921477 0.0
-0.0839849 0.0923496 0.0
-0.084344 0.0924694 0.0
-0.0817951 0.0926493 0.0
-0.0766593 0.0929394 0.0
-0.0692401 0.0933386 0.0
-0.059823 0.093816 0.0
-0.0486764 0.0943257 0.0
-0.036052 0.0948158 0.0
-0.0221847 0.095235 0.0
-0.0072928 0.095537 0.0
0.00842255 0.0956828 0.0
0.0247773 0.0956419 0.0
0.0416044 0.0953927 0.0
0.0587539 0.0949218 0.0
0.0760922 0.0942231 0.0
0.0935009 0.0932969 0.0
0.110877 0.0921485 0.0
0.128129 0.0907873 0.0
0.14518 0.0892258 0.0
0.161964 0.0874789 0.0
0.178423 0.0855626 0.0
0.19451 0.0834943 0.0
0.210184 0.0812914 0.0
0.225414 0.0789717 0.0
0.240172 0.0765526 0.0
0.254438 0.0740509 0.0
0.268196 0.0714827 0.0
0.281435 0.0688635 0.0
0.294145 0.0662074 0.0
0.306324 0.0635278 0.0
0.317969 0.0608368 0.0
0.329081 0.0581454 0.0
0.339664 0.0554634 0.0
0.349722 0.0527996 0.0
0.359261 0.0501614 0.0
0.368289 0.0475555 0.0
0.376815 0.0449875 0.0
0.384847 0.0424618 0.0
0.392396 0.0399823 0.0
0.399471 0.037552 0.0
0.406084 0.0351731 0.0
0.412243 0.0328473 0.0
0.41796 0.0305757 0.0
0.423245 0.028359 0.0
0.428108 0.0261973 0.0
0.432559 0.0240906 0.0
0.436608 0.0220384 0.0
0.440263 0.0200401 0.0
0.443534 0.0180949 0.0
0.44643 0.0162016 0.0
0.448958 0.0143592 0.0
0.451128 0.0125663 0.0
0.452945 0.0108214 0.0
0.454419 0.00912292 0.0
0.455555 0.00746895 0.0
0.456361 0.00585745 0.0
0.456842 0.00428603 0.0
0.457005 0.00275192 0.0
0.456854 0.00125181 0.0
0.456395 -0.000218285 0.0
0.455632 -0.00166322 0.0
0.454568 -0.00308896 0.0
0.453206 -0.0045029 0.0
0.451548 -0.00591423 0.0
0.449593 -0.00733442 0.0
0.447339 -0.00877779 0.0
0.444784 -0.0102622 0.0
0.44192 -0.0118101 0.0
0.438736 -0.0134493 0.0
0.435218 -0.0152147 0.0
0.431345 -0.0171499 0.0
0.427089 -0.0193091 0.0
0.422413 -0.0217601 0.0
0.41727 -0.0245876 0.0
0.411596 -0.0278971 0.0
0.405311 -0.0318206 0.0
0.398311 -0.0365234 0.0
0.390465 -0.0422123 0.0
0.381604 -0.0491472 0.0
0.371514 -0.0576554 0.0
0.359925 -0.0681501 0.0
0.346496 -0.0811563 0.0
0.330797 -0.0973458 0.0
0.312291 -0.117588 0.0
0.290314 -0.143028 0.0
0.264052 -0.175216 0.0
0.232526 -0.216358 0.0
0.194576 -0.269895 0.0
0.148792 -0.341907 0.0
0.0934243 -0.441922 0.0
0.0284468 -0.56717 0.0
-0.0328771 -0.633302 0.0
-0.0492972 -0.384299 0.0
0 0.0176947 0.0
-0.00727072 0.0443553 0.0
-0.0211412 0.0618479 0.0
-0.0360073 0.0727482 0.0
-0.049074 0.0796948 0.0
-0.0592689 0.0845012 0.0
-0.0663163 0.0882087 0.0
-0.0702554 0.0913605 0.0
-0.0712444 0.0942222 0.0
-0.0694916 0.0969114 0.0
-0.0652295 0.0994661 0.0
-0.0587028 0.10188 0.0
-0.0501615 0.104122 0.0
-0.0398552 0.106153 0.0
-0.0280282 0.107928 0.0
-0.0149163 0.109408 0.0
-0.000742928 0.110563 0.0
0.0142829 0.111368 0.0
0.0299685 0.111812 0.0
0.0461387 0.11189 0.0
0.0626358 0.111606 0.0
0.0793197 0.11097 0.0
0.096067 0.11 0.0
0.11277 0.108714 0.0
0.129336 0.107135 0.0
0.145684 0.105288 0.0
0.161746 0.103198 0.0
0.177466 0.10089 0.0
0.192793 0.0983903 0.0
0.207689 0.0957233 0.0
0.222121 0.0929133 0.0
0.236063 0.0899835 0.0
0.249494 0.0869557 0.0
0.262399 0.0838507 0.0
0.274766 0.0806875 0.0
0.286591 0.077484 0.0
0.297867 0.0742564 0.0
0.308596 0.0710193 0.0
0.318778 0.0677858 0.0
0.328418 0.0645677 0.0
0.337523 0.0613751 0.0
0.346098 0.0582169 0.0
0.354154 0.0551004 0.0
0.361699 0.0520319 0.0
0.368743 0.0490166 0.0
0.375298 0.0460585 0.0
0.381374 0.0431608 0.0
0.386983 0.0403257 0.0
0.392135 0.0375549 0.0
0.396843 0.0348492 0.0
0.401117 0.0322091 0.0
0.404967 0.0296346 0.0
0.408404 0.027125 0.0
0.411438 0.0246798 0.0
0.41408 0.0222978 0.0
0.416338 0.0199778 0.0
0.418221 0.0177184 0.0
0.419737 0.015518 0.0
0.420896 0.0133748 0.0
0.421705 0.0112871 0.0
0.42217 0.00925277 0.0
0.4223 0.00726964 0.0
0.422101 0.00533524 0.0
0.421579 0.00344679 0.0
0.420739 0.00160107 0.0
0.419588 -0.000205708 0.0
0.418131 -0.00197807 0.0
0.416371 -0.00372154 0.0
0.414313 -0.00544289 0.0
0.411959 -0.00715049 0.0
0.409311 -0.0088548 0.0
0.406371 -0.0105688 0.0
0.403136 -0.0123089 0.0
0.399605 -0.0140955 0.0
0.395772 -0.015954 0.0
0.391628 -0.0179164 0.0
0.387161 -0.0200228 0.0
0.382353 -0.0223231 0.0
0.37718 -0.0248796 0.0
0.371609 -0.0277704 0.0
0.365599 -0.0310928 0.0
0.359094 -0.0349689 0.0
0.352022 -0.0395509 0.0
0.344291 -0.0450297 0.0
0.335785 -0.0516445 0.0
0.326353 -0.0596958 0.0
0.315804 -0.0695613 0.0
0.303898 -0.0817166 0.0
0.290332 -0.0967628 0.0
0.274725 -0.115462 0.0
0.256609 -0.138787 0.0
0.23541 -0.167995 0.0
0.210443 -0.204755 0.0
0.180904 -0.2514 0.0
0.145862 -0.311543 0.0
0.104214 -0.3911 0.0
0.0550202 -0.496059 0.0
0.000883493 -0.61008 0.0
-0.0420272 -0.632443 0.0
-0.0411681 -0.343131 0.0
0 0.0126818 0.0
-0.00501294 0.0340972 0.0
-0.015271 0.0502422 0.0
-0.0268767 0.0620993 0.0
-0.0375256 0.0711169 0.0
-0.0461036 0.0784426 0.0
-0.0521622 0.0847943 0.0
-0.0555766 0.0905603 0.0
-0.0563769 0.0959251 0.0
-0.0546739 0.100958 0.0
-0.0506275 0.105664 0.0
-0.0444293 0.110017 0.0
-0.0362921 0.113975 0.0
-0.02644 0.117491 0.0
-0.0151014 0.120527 0.0
-0.00250251 0.123049 0.0
0.0111384 0.125039 0.0
0.025615 0.126489 0.0
0.0407355 0.127402 0.0
0.056325 0.127791 0.0
0.0722263 0.127679 0.0
0.0882996 0.127093 0.0
0.104422 0.126065 0.0
0.120487 0.124629 0.0
0.136401 0.122821 0.0
0.152087 0.120677 0.0
0.167476 0.118234 0.0
0.182511 0.115525 0.0
0.197146 0.112585 0.0
0.211341 0.109446 0.0
0.225063 0.106138 0.0
0.238287 0.10269 0.0
0.250993 0.0991288 0.0
0.263166 0.0954799 0.0
0.274796 0.0917662 0.0
0.285874 0.0880087 0.0
0.296399 0.0842266 0.0
0.306369 0.080437 0.0
0.315787 0.0766554 0.0
0.324656 0.072895 0.0
0.332984 0.0691676 0.0
0.340776 0.0654832 0.0
0.348042 0.06185 0.0
0.354792 0.058275 0.0
0.361035 0.0547638 0.0
0.366782 0.0513208 0.0
0.372045 0.0479492 0.0
0.376833 0.0446513 0.0
0.381159 0.0414287 0.0
0.385033 0.0382819 0.0
0.388465 0.0352113 0.0
0.391467 0.0322164 0.0
0.394049 0.0292964 0.0
0.396221 0.0264502 0.0
0.397991 0.0236764 0.0
0.39937 0.0209733 0.0
0.400365 0.018339 0.0
0.400986 0.0157718 0.0
0.40124 0.0132694 0.0
0.401134 0.0108297 0.0
0.400677 0.00845022 0.0
0.399874 0.00612855 0.0
0.398733 0.00386184 0.0
0.39726 0.00164699 0.0
0.39546 -0.000519562 0.0
0.393339 -0.00264199 0.0
0.390903 -0.00472525 0.0
0.388156 -0.00677538 0.0
0.385102 -0.00879978 0.0
0.381745 -0.0108076 0.0
0.378088 -0.0128103 0.0
0.374133 -0.0148221 0.0
0.369879 -0.0168611 0.0
0.365327 -0.0189496 0.0
0.360473 -0.021116 0.0
0.355311 -0.0233955 0.0
0.349832 -0.0258326 0.0
0.344022 -0.0284825 0.0
0.337863 -0.0314149 0.0
0.331327 -0.0347163 0.0
0.324381 -0.0384955 0.0
0.316979 -0.0428883 0.0
0.309059 -0.0480649 0.0
0.300545 -0.0542385 0.0
0.291336 -0.0616764 0.0
0.281304 -0.0707144 0.0
0.270286 -0.081774 0.0
0.258073 -0.0953848 0.0
0.244405 -0.112213 0.0
0.228955 -0.133095 0.0
0.211323 -0.159088 0.0
0.191021 -0.191537 0.0
0.16748 -0.232198 0.0
0.140037 -0.283504 0.0
0.107933 -0.349122 0.0
0.0703537 -0.434195 0.0
0.0272596 -0.539962 0.0
-0.0166433 -0.638111 0.0
-0.0446744 -0.621125 0.0
-0.0333565 -0.309775 0.0
0 0.0092459 0.0
-0.00343587 0.0266686 0.0
-0.0108645 0.0414883 0.0
-0.0196183 0.0538242 0.0
-0.0278934 0.0643428 0.0
-0.0346675 0.0736798 0.0
-0.0394304 0.0822618 0.0
-0.0419629 0.0903154 0.0
-0.0422077 0.0979291 0.0
-0.0402038 0.105108 0.0
-0.0360533 0.111815 0.0
-0.0299029 0.117989 0.0
-0.021931 0.123569 0.0
-0.0123365 0.128498 0.0
-0.00132932 0.132734 0.0
0.0108779 0.136248 0.0
0.0240766 0.139031 0.0
0.0380679 0.141087 0.0
0.0526661 0.142437 0.0
0.0677018 0.143112 0.0
0.0830225 0.143149 0.0
0.0984928 0.142594 0.0
0.113994 0.141494 0.0
0.129423 0.139897 0.0
0.144692 0.137852 0.0
0.159723 0.135407 0.0
0.174453 0.132607 0.0
0.188827 0.129497 0.0
0.202798 0.126116 0.0
0.21633 0.122506 0.0
0.22939 0.118702 0.0
0.241955 0.114739 0.0
0.254005 0.110648 0.0
0.265524 0.106459 0.0
0.276504 0.102199 0.0
0.286936 0.0978911 0.0
0.296819 0.0935585 0.0
0.306151 0.0892203 0.0
0.314934 0.084894 0.0
0.323173 0.0805947 0.0
0.330872 0.0763354 0.0
0.33804 0.072127 0.0
0.344684 0.0679789 0.0
0.350813 0.0638986 0.0
0.356436 0.0598918 0.0
0.361564 0.0559634 0.0
0.366207 0.0521164 0.0
0.370374 0.0483534 0.0
0.374076 0.0446755 0.0