# vtk DataFile Version 3.0
Channel Flow Simulation
ASCII
DATASET STRUCTURED_GRID
DIMENSIONS 100 300 1
POINTS 30000 float
0.015 0.998333 0.0
0.045 0.998333 0.0
0.075 0.998333 0.0
0.105 0.998333 0.0
0.135 0.998333 0.0
0.165 0.998333 0.0
0.195 0.998333 0.0
0.225 0.998333 0.0
0.255 0.998333 0.0
0.285 0.998333 0.0
0.315 0.998333 0.0
0.345 0.998333 0.0
0.375 0.998333 0.0
0.405 0.998333 0.0
0.435 0.998333 0.0
0.465 0.998333 0.0
0.495 0.998333 0.0
0.525 0.998333 0.0
0.555 0.998333 0.0
0.585 0.998333 0.0
0.615 0.998333 0.0
0.645 0.998333 0.0
0.675 0.998333 0.0
0.705 0.998333 0.0
0.735 0.998333 0.0
0.765 0.998333 0.0
0.795 0.998333 0.0
0.825 0.998333 0.0
0.855 0.998333 0.0
0.885 0.998333 0.0
0.915 0.998333 0.0
0.945 0.998333 0.0
0.975 0.998333 0.0
1.005 0.998333 0.0
1.035 0.998333 0.0
1.065 0.998333 0.0
1.095 0.998333 0.0
1.125 0.998333 0.0
1.155 0.998333 0.0
1.185 0.998333 0.0
1.215 0.998333 0.0
1.245 0.998333 0.0
1.275 0.998333 0.0
1.305 0.998333 0.0
1.335 0.998333 0.0
1.365 0.998333 0.0
1.395 0.998333 0.0
1.425 0.998333 0.0
1.455 0.998333 0.0
1.485 0.998333 0.0
1.515 0.998333 0.0
1.545 0.998333 0.0
1.575 0.998333 0.0
1.605 0.998333 0.0
1.635 0.998333 0.0
1.665 0.998333 0.0
1.695 0.998333 0.0
1.725 0.998333 0.0
1.755 0.998333 0.0
1.785 0.998333 0.0
1.815 0.998333 0.0
1.845 0.998333 0.0
1.875 0.998333 0.0
1.905 0.998333 0.0
1.935 0.998333 0.0
1.965 0.998333 0.0
1.995 0.998333 0.0
2.025 0.998333 0.0
2.055 0.998333 0.0
2.085 0.998333 0.0
2.115 0.998333 0.0
2.145 0.998333 0.0
2.175 0.998333 0.0
2.205 0.998333 0.0
2.235 0.998333 0.0
2.265 0.998333 0.0
2.295 0.998333 0.0
2.325 0.998333 0.0
2.355 0.998333 0.0
2.385 0.998333 0.0
2.415 0.998333 0.0
2.445 0.998333 0.0
2.475 0.998333 0.0
2.505 0.998333 0.0
2.535 0.998333 0.0
2.565 0.998333 0.0
2.595 0.998333 0.0
2.625 0.998333 0.0
2.655 0.998333 0.0
2.685 0.998333 0.0
2.715 0.998333 0.0
2.745 0.998333 0.0
2.775 0.998333 0.0
2.805 0.998333 0.0
2.835 0.998333 0.0
2.865 0.998333 0.0
2.895 0.998333 0.0
2.925 0.998333 0.0
2.955 0.998333 0.0
2.985 0.998333 0.0
0.015 0.995 0.0
0.045 0.995 0.0
0.075 0.995 0.0
0.105 0.995 0.0
0.135 0.995 0.0
0.165 0.995 0.0
0.195 0.995 0.0
0.225 0.995 0.0
0.255 0.995 0.0
0.285 0.995 0.0
0.315 0.995 0.0
0.345 0.995 0.0
0.375 0.995 0.0
0.405 0.995 0.0
0.435 0.995 0.0
0.465 0.995 0.0
0.495 0.995 0.0
0.525 0.995 0.0
0.555 0.995 0.0
0.585 0.995 0.0
0.615 0.995 0.0
0.645 0.995 0.0
0.675 0.995 0.0
0.705 0.995 0.0
0.735 0.995 0.0
0.765 0.995 0.0
0.795 0.995 0.0
0.825 0.995 0.0
0.855 0.995 0.0
0.885 0.995 0.0
0.915 0.995 0.0
0.945 0.995 0.0
0.975 0.995 0.0
1.005 0.995 0.0
1.035 0.995 0.0
1.065 0.995 0.0
1.095 0.995 0.0
1.125 0.995 0.0
1.155 0.995 0.0
1.185 0.995 0.0
1.215 0.995 0.0
1.245 0.995 0.0
1.275 0.995 0.0
1.305 0.995 0.0
1.335 0.995 0.0
1.365 0.995 0.0
1.395 0.995 0.0
1.425 0.995 0.0
1.455 0.995 0.0
1.485 0.995 0.0
1.515 0.995 0.0
1.545 0.995 0.0
1.575 0.995 0.0
1.605 0.995 0.0
1.635 0.995 0.0
1.665 0.995 0.0
1.695 0.995 0.0
1.725 0.995 0.0
1.755 0.995 0.0
1.785 0.995 0.0
1.815 0.995 0.0
1.845 0.995 0.0
1.875 0.995 0.0
1.905 0.995 0.0
1.935 0.995 0.0
1.965 0.995 0.0
1.995 0.995 0.0
2.025 0.995 0.0
2.055 0.995 0.0
2.085 0.995 0.0
2.115 0.995 0.0
2.145 0.995 0.0
2.175 0.995 0.0
2.205 0.995 0.0
2.235 0.995 0.0
2.265 0.995 0.0
2.295 0.995 0.0
2.325 0.995 0.0
2.355 0.995 0.0
2.385 0.995 0.0
2.415 0.995 0.0
2.445 0.995 0.0
2.475 0.995 0.0
2.505 0.995 0.0
2.535 0.995 0.0
2.565 0.995 0.0
2.595 0.995 0.0
2.625 0.995 0.0
2.655 0.995 0.0
2.685 0.995 0.0
2.715 0.995 0.0
2.745 0.995 0.0
2.775 0.995 0.0
2.805 0.995 0.0
2.835 0.995 0.0
2.865 0.995 0.0
2.895 0.995 0.0
2.925 0.995 0.0
2.955 0.995 0.0
2.985 0.995 0.0
0.015 0.991667 0.0
0.045 0.991667 0.0
0.075 0.991667 0.0
0.105 0.991667 0.0
0.135 0.991667 0.0
0.165 0.991667 0.0
0.195 0.991667 0.0
0.225 0.991667 0.0
0.255 0.991667 0.0
0.285 0.991667 0.0
0.315 0.991667 0.0
0.345 0.991667 0.0
0.375 0.991667 0.0
0.405 0.991667 0.0
0.435 0.991667 0.0
0.465 0.991667 0.0
0.495 0.991667 0.0
0.525 0.991667 0.0
0.555 0.991667 0.0
0.585 0.991667 0.0
0.615 0.991667 0.0
0.645 0.991667 0.0
0.675 0.991667 0.0
0.705 0.991667 0.0
0.735 0.991667 0.0
0.765 0.991667 0.0
0.795 0.991667 0.0
0.825 0.991667 0.0
0.855 0.991667 0.0
0.885 0.991667 0.0
0.915 0.991667 0.0
0.945 0.991667 0.0
0.975 0.991667 0.0
1.005 0.991667 0.0
1.035 0.991667 0.0
1.065 0.991667 0.0
1.095 0.991667 0.0
1.125 0.991667 0.0
1.155 0.991667 0.0
1.185 0.991667 0.0
1.215 0.991667 0.0
1.245 0.991667 0.0
1.275 0.991667 0.0
1.305 0.991667 0.0
1.335 0.991667 0.0
1.365 0.991667 0.0
1.395 0.991667 0.0
1.425 0.991667 0.0
1.455 0.991667 0.0
1.485 0.991667 0.0
1.515 0.991667 0.0
1.545 0.991667 0.0
1.575 0.991667 0.0
1.605 0.991667 0.0
1.635 0.991667 0.0
1.665 0.991667 0.0
1.695 0.991667 0.0
1.725 0.991667 0.0
1.755 0.991667 0.0
1.785 0.991667 0.0
1.815 0.991667 0.0
1.845 0.991667 0.0
1.875 0.991667 0.0
1.905 0.991667 0.0
1.935 0.991667 0.0
1.965 0.991667 0.0
1.995 0.991667 0.0
2.025 0.991667 0.0
2.055 0.991667 0.0
2.085 0.991667 0.0
2.115 0.991667 0.0
2.145 0.991667 0.0
2.175 0.991667 0.0
2.205 0.991667 0.0
2.235 0.991667 0.0
2.265 0.991667 0.0
2.295 0.991667 0.0
2.325 0.991667 0.0
2.355 0.991667 0.0
2.385 0.991667 0.0
2.415 0.991667 0.0
2.445 0.991667 0.0
2.475 0.991667 0.0
2.505 0.991667 0.0
2.535 0.991667 0.0
2.565 0.991667 0.0
2.595 0.991667 0.0
2.625 0.991667 0.0
2.655 0.991667 0.0
2.685 0.991667 0.0
2.715 0.991667 0.0
2.745 0.991667 0.0
2.775 0.991667 0.0
2.805 0.991667 0.0
2.835 0.991667 0.0
2.865 0.991667 0.0
2.895 0.991667 0.0
2.925 0.991667 0.0
2.955 0.991667 0.0
2.985 0.991667 0.0
0.015 0.988333 0.0
0.045 0.988333 0.0
0.075 0.988333 0.0
0.105 0.988333 0.0
0.135 0.988333 0.0
0.165 0.988333 0.0
0.195 0.988333 0.0
0.225 0.988333 0.0
0.255 0.988333 0.0
0.285 0.988333 0.0
0.315 0.988333 0.0
0.345 0.988333 0.0
0.375 0.988333 0.0
0.405 0.988333 0.0
0.435 0.988333 0.0
0.465 0.988333 0.0
0.495 0.988333 0.0
0.525 0.988333 0.0
0.555 0.988333 0.0
0.585 0.988333 0.0
0.615 0.988333 0.0
0.645 0.988333 0.0
0.675 0.988333 0.0
0.705 0.988333 0.0
0.735 0.988333 0.0
0.765 0.988333 0.0
0.795 0.988333 0.0
0.825 0.988333 0.0
0.855 0.988333 0.0
0.885 0.988333 0.0
0.915 0.988333 0.0
0.945 0.988333 0.0
0.975 0.988333 0.0
1.005 0.988333 0.0
1.035 0.988333 0.0
1.065 0.988333 0.0
1.095 0.988333 0.0
1.125 0.988333 0.0
1.155 0.988333 0.0
1.185 0.988333 0.0
1.215 0.988333 0.0
1.245 0.988333 0.0
1.275 0.988333 0.0
1.305 0.988333 0.0
1.335 0.988333 0.0
1.365 0.988333 0.0
1.395 0.988333 0.0
1.425 0.988333 0.0
1.455 0.988333 0.0
1.485 0.988333 0.0
1.515 0.988333 0.0
1.545 0.988333 0.0
1.575 0.988333 0.0
1.605 0.988333 0.0
1.635 0.988333 0.0
1.665 0.988333 0.0
1.695 0.988333 0.0
1.725 0.988333 0.0
1.755 0.988333 0.0
1.785 0.988333 0.0
1.815 0.988333 0.0
1.845 0.988333 0.0
1.875 0.988333 0.0
1.905 0.988333 0.0
1.935 0.988333 0.0
1.965 0.988333 0.0
1.995 0.988333 0.0
2.025 0.988333 0.0
2.055 0.988333 0.0
2.085 0.988333 0.0
2.115 0.988333 0.0
2.145 0.988333 0.0
2.175 0.988333 0.0
2.205 0.988333 0.0
2.235 0.988333 0.0
2.265 0.988333 0.0
2.295 0.988333 0.0
2.325 0.988333 0.0
2.355 0.988333 0.0
2.385 0.988333 0.0
2.415 0.988333 0.0
2.445 0.988333 0.0
2.475 0.988333 0.0
2.505 0.988333 0.0
2.535 0.988333 0.0
2.565 0.988333 0.0
2.595 0.988333 0.0
2.625 0.988333 0.0
2.655 0.988333 0.0
2.685 0.988333 0.0
2.715 0.988333 0.0
2.745 0.988333 0.0
2.775 0.988333 0.0
2.805 0.988333 0.0
2.835 0.988333 0.0
2.865 0.988333 0.0
2.895 0.988333 0.0
2.925 0.988333 0.0
2.955 0.988333 0.0
2.985 0.988333 0.0
0.015 0.985 0.0
0.045 0.985 0.0
0.075 0.985 0.0
0.105 0.985 0.0
0.135 0.985 0.0
0.165 0.985 0.0
0.195 0.985 0.0
0.225 0.985 0.0
0.255 0.985 0.0
0.285 0.985 0.0
0.315 0.985 0.0
0.345 0.985 0.0
0.375 0.985 0.0
0.405 0.985 0.0
0.435 0.985 0.0
0.465 0.985 0.0
0.495 0.985 0.0
0.525 0.985 0.0
0.555 0.985 0.0
0.585 0.985 0.0
0.615 0.985 0.0
0.645 0.985 0.0
0.675 0.985 0.0
0.705 0.985 0.0
0.735 0.985 0.0
0.765 0.985 0.0
0.795 0.985 0.0
0.825 0.985 0.0
0.855 0.985 0.0
0.885 0.985 0.0
0.915 0.985 0.0
0.945 0.985 0.0
0.975 0.985 0.0
1.005 0.985 0.0
1.035 0.985 0.0
1.065 0.985 0.0
1.095 0.985 0.0
1.125 0.985 0.0
1.155 0.985 0.0
1.185 0.985 0.0
1.215 0.985 0.0
1.245 0.985 0.0
1.275 0.985 0.0
1.305 0.985 0.0
1.335 0.985 0.0
1.365 0.985 0.0
1.395 0.985 0.0
1.425 0.985 0.0
1.455 0.985 0.0
1.485 0.985 0.0
1.515 0.985 0.0
1.545 0.985 0.0
1.575 0.985 0.0
1.605 0.985 0.0
1.635 0.985 0.0
1.665 0.985 0.0
1.695 0.985 0.0
1.725 0.985 0.0
1.755 0.985 0.0
1.785 0.985 0.0
1.815 0.985 0.0
1.845 0.985 0.0
1.875 0.985 0.0
1.905 0.985 0.0
1.935 0.985 0.0
1.965 0.985 0.0
1.995 0.985 0.0
2.025 0.985 0.0
2.055 0.985 0.0
2.085 0.985 0.0
2.115 0.985 0.0
2.145 0.985 0.0
2.175 0.985 0.0
2.205 0.985 0.0
2.235 0.985 0.0
2.265 0.985 0.0
2.295 0.985 0.0
2.325 0.985 0.0
2.355 0.985 0.0
2.385 0.985 0.0
2.415 0.985 0.0
2.445 0.985 0.0
2.475 0.985 0.0
2.505 0.985 0.0
2.535 0.985 0.0
2.565 0.985 0.0
2.595 0.985 0.0
2.625 0.985 0.0
2.655 0.985 0.0
2.685 0.985 0.0
2.715 0.985 0.0
2.745 0.985 0.0
2.775 0.985 0.0
2.805 0.985 0.0
2.835 0.985 0.0
2.865 0.985 0.0
2.895 0.985 0.0
2.925 0.985 0.0
2.955 0.985 0.0
2.985 0.985 0.0
0.015 0.981667 0.0
0.045 0.981667 0.0
0.075 0.981667 0.0
0.105 0.981667 0.0
0.135 0.981667 0.0
0.165 0.981667 0.0
0.195 0.981667 0.0
0.225 0.981667 0.0
0.255 0.981667 0.0
0.285 0.981667 0.0
0.315 0.981667 0.0
0.345 0.981667 0.0
0.375 0.981667 0.0
0.405 0.981667 0.0
0.435 0.981667 0.0
0.465 0.981667 0.0
0.495 0.981667 0.0
0.525 0.981667 0.0
0.555 0.981667 0.0
0.585 0.981667 0.0
0.615 0.981667 0.0
0.645 0.981667 0.0
0.675 0.981667 0.0
0.705 0.981667 0.0
0.735 0.981667 0.0
0.765 0.981667 0.0
0.795 0.981667 0.0
0.825 0.981667 0.0
0.855 0.981667 0.0
0.885 0.981667 0.0
0.915 0.981667 0.0
0.945 0.981667 0.0
0.975 0.981667 0.0
1.005 0.981667 0.0
1.035 0.981667 0.0
1.065 0.981667 0.0
1.095 0.981667 0.0
1.125 0.981667 0.0
1.155 0.981667 0.0
1.185 0.981667 0.0
1.215 0.981667 0.0
1.245 0.981667 0.0
1.275 0.981667 0.0
1.305 0.981667 0.0
1.335 0.981667 0.0
1.365 0.981667 0.0
1.395 0.981667 0.0
1.425 0.981667 0.0
1.455 0.981667 0.0
1.485 0.981667 0.0
1.515 0.981667 0.0
[...]
POINT_DATA 30000
VECTORS velocity float
0.1 -0.00954652 0.0
0.0140813 -0.000753213 0.0
0.00730233 -0.000221601 0.0
0.00530789 -0.000113684 0.0
0.00428469 -7.07053e-05 0.0
0.0036483 -4.85673e-05 0.0
0.00321116 -3.55105e-05 0.0
0.00289153 -2.71107e-05 0.0
0.0026475 -2.13651e-05 0.0
0.00245518 -1.72506e-05 0.0
0.00229988 -1.41978e-05 0.0
0.00217207 -1.18679e-05 0.0
0.00206522 -1.00486e-05 0.0
0.00197474 -8.60104e-06 0.0
0.0018973 -7.43112e-06 0.0
0.00183038 -6.47303e-06 0.0
0.00177209 -5.67957e-06 0.0
0.00172093 -5.01609e-06 0.0
0.00167575 -4.45665e-06 0.0
0.00163561 -3.98147e-06 0.0
0.00159974 -3.57523e-06 0.0
0.00156752 -3.22591e-06 0.0
0.00153845 -2.92395e-06 0.0
0.0015121 -2.66167e-06 0.0
0.00148811 -2.43284e-06 0.0
0.00146618 -2.23236e-06 0.0
0.00144605 -2.05601e-06 0.0
0.00142751 -1.9003e-06 0.0
0.00141037 -1.76232e-06 0.0
0.00139448 -1.6396e-06 0.0
0.00137968 -1.53008e-06 0.0
0.00136588 -1.432e-06 0.0
0.00135296 -1.34388e-06 0.0
0.00134083 -1.26444e-06 0.0
0.00132941 -1.19259e-06 0.0
0.00131864 -1.1274e-06 0.0
0.00130846 -1.06806e-06 0.0
0.00129882 -1.01388e-06 0.0
0.00128966 -9.64262e-07 0.0
0.00128095 -9.18684e-07 0.0
0.00127265 -8.76697e-07 0.0
0.00126472 -8.37907e-07 0.0
0.00125715 -8.01974e-07 0.0
0.0012499 -7.68599e-07 0.0
0.00124295 -7.37522e-07 0.0
0.00123628 -7.08513e-07 0.0
0.00122987 -6.81372e-07 0.0
0.00122371 -6.55922e-07 0.0
0.00121778 -6.32008e-07 0.0
0.00121206 -6.0949e-07 0.0
0.00120654 -5.88247e-07 0.0
0.00120122 -5.68171e-07 0.0
0.00119608 -5.49164e-07 0.0
0.00119111 -5.3114e-07 0.0
0.0011863 -5.14022e-07 0.0
0.00118164 -4.97741e-07 0.0
0.00117714 -4.82233e-07 0.0
0.00117277 -4.67443e-07 0.0
0.00116854 -4.53319e-07 0.0
0.00116443 -4.39814e-07 0.0
0.00116045 -4.26887e-07 0.0
0.00115658 -4.14498e-07 0.0
0.00115283 -4.02612e-07 0.0
0.00114918 -3.91195e-07 0.0
0.00114564 -3.80217e-07 0.0
0.00114219 -3.69649e-07 0.0
0.00113884 -3.59464e-07 0.0
0.00113558 -3.49636e-07 0.0
0.00113242 -3.4014e-07 0.0
0.00112933 -3.30952e-07 0.0
0.00112634 -3.2205e-07 0.0
0.00112342 -3.13409e-07 0.0
0.00112058 -3.05006e-07 0.0
0.00111782 -2.96817e-07 0.0
0.00111513 -2.88818e-07 0.0
0.00111251 -2.80982e-07 0.0
0.00110996 -2.7328e-07 0.0
0.00110749 -2.65682e-07 0.0
0.00110508 -2.58154e-07 0.0
0.00110274 -2.50659e-07 0.0
0.00110047 -2.43155e-07 0.0
0.00109827 -2.35593e-07 0.0
0.00109614 -2.27919e-07 0.0
0.00109408 -2.20072e-07 0.0
0.00109208 -2.11981e-07 0.0
0.00109016 -2.03566e-07 0.0
0.00108832 -1.94739e-07 0.0
0.00108656 -1.85398e-07 0.0
0.00108488 -1.75436e-07 0.0
0.0010833 -1.6474e-07 0.0
0.00108181 -1.53198e-07 0.0
0.00108042 -1.40716e-07 0.0
0.00107915 -1.2724e-07 0.0
0.001078 -1.12805e-07 0.0
0.00107698 -9.76335e-08 0.0
0.00107609 -8.2382e-08 0.0
0.00107535 -6.89692e-08 0.0
0.00107473 -6.45444e-08 0.0
0.00107414 -1.18765e-07 0.0
0.00107307 -1.30804e-06 0.0
0.1 -0.0165521 0.0
0.03695 -0.00249879 0.0
0.0212398 -0.000844738 0.0
0.0156315 -0.000441789 0.0
0.0126786 -0.00027676 0.0
0.0108241 -0.000190914 0.0
0.00954293 -0.000139988 0.0
0.00860262 -0.000107097 0.0
0.00788273 -8.45335e-05 0.0
0.0073142 -6.83406e-05 0.0
0.00685437 -5.63049e-05 0.0
0.00647538 -4.71061e-05 0.0
0.00615822 -3.99147e-05 0.0
0.00588941 -3.4187e-05 0.0
0.00565912 -2.95536e-05 0.0
0.00545999 -2.57562e-05 0.0
0.00528643 -2.2609e-05 0.0
0.00513404 -1.99757e-05 0.0
0.00499939 -1.7754e-05 0.0
0.0048797 -1.58659e-05 0.0
0.00477272 -1.42508e-05 0.0
0.00467662 -1.28615e-05 0.0
0.00458988 -1.16599e-05 0.0
0.00451124 -1.06159e-05 0.0
0.00443963 -9.70458e-06 0.0
0.00437417 -8.9059e-06 0.0
0.00431409 -8.20314e-06 0.0
0.00425875 -7.58244e-06 0.0
0.00420759 -7.03223e-06 0.0
0.00416014 -6.54278e-06 0.0
0.004116 -6.10587e-06 0.0
0.0040748 -5.71454e-06 0.0
0.00403624 -5.36287e-06 0.0
0.00400005 -5.0458e-06 0.0
0.003966 -4.759e-06 0.0
0.00393388 -4.49875e-06 0.0
0.00390352 -4.26185e-06 0.0
0.00387476 -4.04554e-06 0.0
0.00384746 -3.84743e-06 0.0
0.00382149 -3.66545e-06 0.0
0.00379676 -3.4978e-06 0.0
0.00377315 -3.34293e-06 0.0
0.00375059 -3.19946e-06 0.0
0.003729 -3.06622e-06 0.0
0.0037083 -2.94215e-06 0.0
0.00368844 -2.82635e-06 0.0
0.00366937 -2.71801e-06 0.0
0.00365102 -2.61643e-06 0.0
0.00363336 -2.52098e-06 0.0
0.00361635 -2.43111e-06 0.0
0.00359994 -2.34633e-06 0.0
0.0035841 -2.26622e-06 0.0
0.0035688 -2.19037e-06 0.0
0.00355402 -2.11845e-06 0.0
0.00353972 -2.05014e-06 0.0
0.00352588 -1.98518e-06 0.0
0.00351248 -1.9233e-06 0.0
0.0034995 -1.86428e-06 0.0
0.00348691 -1.80792e-06 0.0
0.00347471 -1.75404e-06 0.0
0.00346287 -1.70245e-06 0.0
0.00345137 -1.65302e-06 0.0
0.00344021 -1.60558e-06 0.0
0.00342938 -1.56002e-06 0.0
0.00341884 -1.51621e-06 0.0
0.00340861 -1.47403e-06 0.0
0.00339866 -1.43337e-06 0.0
0.00338898 -1.39414e-06 0.0
0.00337957 -1.35623e-06 0.0
0.00337042 -1.31955e-06 0.0
0.00336151 -1.284e-06 0.0
0.00335284 -1.2495e-06 0.0
0.00334441 -1.21595e-06 0.0
0.0033362 -1.18325e-06 0.0
0.00332821 -1.15131e-06 0.0
0.00332044 -1.12002e-06 0.0
0.00331288 -1.08927e-06 0.0
0.00330553 -1.05894e-06 0.0
0.00329838 -1.02889e-06 0.0
0.00329144 -9.98985e-07 0.0
0.0032847 -9.69048e-07 0.0
0.00327816 -9.38893e-07 0.0
0.00327182 -9.08308e-07 0.0
0.00326569 -8.77049e-07 0.0
0.00325977 -8.44839e-07 0.0
0.00325407 -8.11365e-07 0.0
0.00324859 -7.76274e-07 0.0
0.00324336 -7.39175e-07 0.0
0.00323837 -6.99641e-07 0.0
0.00323365 -6.57229e-07 0.0
0.00322921 -6.11503e-07 0.0
0.00322508 -5.62089e-07 0.0
0.00322129 -5.08777e-07 0.0
0.00321785 -4.51713e-07 0.0
0.0032148 -3.91792e-07 0.0
0.00321215 -3.31652e-07 0.0
0.0032099 -2.78987e-07 0.0
0.00320801 -2.61627e-07 0.0
0.00320624 -4.3922e-07 0.0
0.00320335 -2.61766e-06 0.0
0.1 -0.0215082 0.0
0.0553947 -0.00483933 0.0
0.0343297 -0.00181361 0.0
0.0256099 -0.000967962 0.0
0.0208743 -0.000610911 0.0
0.0178669 -0.000423138 0.0
0.0157769 -0.000311085 0.0
0.014237 -0.000238437 0.0
0.0130549 -0.000188465 0.0
0.0121195 -0.000152529 0.0
0.0113618 -0.000125777 0.0
0.0107365 -0.000105304 0.0
0.0102127 -8.92827e-05 0.0
0.00976838 -7.65104e-05 0.0
0.00938745 -6.61705e-05 0.0
0.00905788 -5.76904e-05 0.0
0.00877045 -5.06582e-05 0.0
0.00851799 -4.4771e-05 0.0
0.00829481 -3.98016e-05 0.0
0.00809636 -3.55764e-05 0.0
0.00791895 -3.19608e-05 0.0
0.00775954 -2.88492e-05 0.0
0.00761564 -2.61573e-05 0.0
0.00748514 -2.38174e-05 0.0
0.00736631 -2.17745e-05 0.0
0.00725766 -1.99835e-05 0.0
0.00715795 -1.84072e-05 0.0
0.00706609 -1.70146e-05 0.0
0.00698118 -1.57799e-05 0.0
0.00690244 -1.46813e-05 0.0
0.00682917 -1.37005e-05 0.0
0.0067608 -1.28219e-05 0.0
0.00669682 -1.20322e-05 0.0
0.00663678 -1.13201e-05 0.0
0.00658029 -1.0676e-05 0.0
0.00652702 -1.00915e-05 0.0
0.00647667 -9.55938e-06 0.0
0.00642898 -9.07351e-06 0.0
0.00638371 -8.62851e-06 0.0
0.00634066 -8.21976e-06 0.0
0.00629966 -7.84321e-06 0.0
0.00626053 -7.49537e-06 0.0
0.00622314 -7.17317e-06 0.0
0.00618736 -6.87394e-06 0.0
0.00615308 -6.59535e-06 0.0
0.00612018 -6.33533e-06 0.0
0.00608859 -6.09209e-06 0.0
0.0060582 -5.86404e-06 0.0
0.00602896 -5.64977e-06 0.0
0.00600079 -5.44805e-06 0.0
0.00597362 -5.25778e-06 0.0
0.0059474 -5.07798e-06 0.0
0.00592208 -4.90779e-06 0.0
0.00589761 -4.74641e-06 0.0
0.00587394 -4.59316e-06 0.0
0.00585104 -4.44742e-06 0.0
0.00582887 -4.30861e-06 0.0
0.00580739 -4.17624e-06 0.0
0.00578657 -4.04983e-06 0.0
0.00576638 -3.92898e-06 0.0
0.00574679 -3.8133e-06 0.0
0.00572778 -3.70243e-06 0.0
0.00570932 -3.59607e-06 0.0
0.0056914 -3.49391e-06 0.0
0.00567398 -3.39567e-06 0.0
0.00565705 -3.3011e-06 0.0
0.0056406 -3.20996e-06 0.0
0.0056246 -3.12201e-06 0.0
0.00560904 -3.03703e-06 0.0
0.0055939 -2.95481e-06 0.0
0.00557917 -2.87514e-06 0.0
0.00556484 -2.79781e-06 0.0
0.0055509 -2.72261e-06 0.0
0.00553733 -2.64934e-06 0.0
0.00552412 -2.57777e-06 0.0
0.00551128 -2.50767e-06 0.0
0.00549878 -2.43879e-06 0.0
0.00548663 -2.37085e-06 0.0
0.00547481 -2.30357e-06 0.0
0.00546333 -2.23662e-06 0.0
0.00545219 -2.16962e-06 0.0
0.00544137 -2.10215e-06 0.0
0.0054309 -2.03374e-06 0.0
0.00542076 -1.96386e-06 0.0
0.00541098 -1.89188e-06 0.0
0.00540155 -1.81711e-06 0.0
0.00539249 -1.73877e-06 0.0
0.00538382 -1.65599e-06 0.0
0.00537557 -1.56782e-06 0.0
0.00536775 -1.47328e-06 0.0
0.0053604 -1.37139e-06 0.0
0.00535356 -1.26134e-06 0.0
0.00534726 -1.14266e-06 0.0
0.00534155 -1.01567e-06 0.0
0.00533648 -8.82388e-07 0.0
0.00533206 -7.48731e-07 0.0
0.0053283 -6.31863e-07 0.0
0.00532513 -5.92039e-07 0.0
0.00532215 -9.31763e-07 0.0
0.00531772 -3.92896e-06 0.0
0.1 -0.0248251 0.0
0.070148 -0.00747323 0.0
0.046443 -0.00306411 0.0
0.0351885 -0.00167261 0.0
0.0288466 -0.00106464 0.0
0.024763 -0.00074075 0.0
0.0219044 -0.000546141 0.0
0.0197889 -0.000419425 0.0
0.01816 -0.000332003 0.0
0.0168681 -0.000268999 0.0
0.0158199 -0.000222017 0.0
0.0149537 -0.000186015 0.0
0.0142273 -0.000157809 0.0
0.0136106 -0.000135304 0.0
0.0130814 -0.00011707 0.0
0.0126233 -0.000102105 0.0
0.0122235 -8.96886e-05 0.0
0.0118722 -7.92878e-05 0.0
0.0115616 -7.05041e-05 0.0
0.0112852 -6.30325e-05 0.0
0.0110381 -5.66364e-05 0.0
0.010816 -5.11296e-05 0.0
0.0106155 -4.6364e-05 0.0
0.0104336 -4.22203e-05 0.0
0.0102679 -3.86014e-05 0.0
0.0101165 -3.54278e-05 0.0
0.00997746 -3.2634e-05 0.0
0.0098494 -3.01652e-05 0.0
0.00973103 -2.79759e-05 0.0
0.00962125 -2.60276e-05 0.0
0.00951911 -2.42879e-05 0.0
0.00942381 -2.27292e-05 0.0
0.00933462 -2.13282e-05 0.0
0.00925094 -2.00647e-05 0.0
0.00917222 -1.89217e-05 0.0
0.009098 -1.78843e-05 0.0
0.00902784 -1.694e-05 0.0
0.0089614 -1.60777e-05 0.0
0.00889834 -1.5288e-05 0.0
0.00883839 -1.45626e-05 0.0
0.00878129 -1.38943e-05 0.0
0.00872681 -1.3277e-05 0.0
0.00867476 -1.27053e-05 0.0
0.00862496 -1.21744e-05 0.0
0.00857724 -1.16801e-05 0.0
0.00853146 -1.12188e-05 0.0
0.00848749 -1.07873e-05 0.0
0.00844522 -1.03828e-05 0.0
0.00840454 -1.00027e-05 0.0
0.00836535 -9.645e-06 0.0
0.00832756 -9.30759e-06 0.0
0.0082911 -8.98879e-06 0.0
0.00825588 -8.68704e-06 0.0
0.00822186 -8.40096e-06 0.0
0.00818895 -8.12931e-06 0.0
0.00815711 -7.87098e-06 0.0
0.00812629 -7.62497e-06 0.0
0.00809643 -7.39038e-06 0.0
0.00806748 -7.1664e-06 0.0
0.00803942 -6.95226e-06 0.0
0.0080122 -6.74731e-06 0.0
0.00798578 -6.5509e-06 0.0
0.00796013 -6.36248e-06 0.0
0.00793522 -6.18152e-06 0.0
0.00791102 -6.00752e-06 0.0
0.00788751 -5.84003e-06 0.0
0.00786464 -5.67861e-06 0.0
0.00784241 -5.52286e-06 0.0
0.0078208 -5.37239e-06 0.0
0.00779977 -5.22681e-06 0.0
0.00777931 -5.08575e-06 0.0
0.0077594 -4.94886e-06 0.0
0.00774004 -4.81576e-06 0.0
0.00772119 -4.68607e-06 0.0
0.00770285 -4.55941e-06 0.0
0.007685 -4.43536e-06 0.0
0.00766765 -4.31349e-06 0.0
0.00765077 -4.19333e-06 0.0
0.00763436 -4.07434e-06 0.0
0.00761841 -3.95595e-06 0.0
0.00760293 -3.83751e-06 0.0
0.00758791 -3.71829e-06 0.0
0.00757336 -3.59745e-06 0.0
0.00755928 -3.47404e-06 0.0
0.00754568 -3.34699e-06 0.0
0.00753258 -3.21507e-06 0.0
0.00752 -3.07691e-06 0.0
0.00750795 -2.93097e-06 0.0
0.00749647 -2.77562e-06 0.0
0.0074856 -2.6091e-06 0.0
0.00747537 -2.42973e-06 0.0
0.00746584 -2.23605e-06 0.0
0.00745706 -2.02724e-06 0.0
0.0074491 -1.80387e-06 0.0
0.007442 -1.56951e-06 0.0
0.00743582 -1.33458e-06 0.0
0.00743054 -1.12912e-06 0.0
0.00742607 -1.05527e-06 0.0
0.0074219 -1.57232e-06 0.0
0.00741613 -5.24205e-06 0.0
0.1 -0.026844 0.0
0.0818296 -0.0101769 0.0
0.0574966 -0.00452872 0.0
0.044315 -0.00253333 0.0
0.0365686 -0.00162818 0.0
0.0314968 -0.00113862 0.0
0.0279159 -0.000842139 0.0
0.0252519 -0.000648142 0.0
0.0231934 -0.000513856 0.0
0.0215567 -0.00041684 0.0
0.0202262 -0.000344363 0.0
0.019125 -0.000288744 0.0
0.0182004 -0.000245118 0.0
0.0174146 -0.000210274 0.0
0.0167399 -0.00018202 0.0
0.0161553 -0.000158815 0.0
0.0156449 -0.000139549 0.0
0.0151962 -0.000123402 0.0
0.0147991 -0.000109758 0.0
0.0144458 -9.81468e-05 0.0
0.0141298 -8.8203e-05 0.0
0.0138456 -7.96385e-05 0.0
0.013589 -7.22241e-05 0.0
0.0133563 -6.57751e-05 0.0
0.0131443 -6.01412e-05 0.0
0.0129504 -5.51992e-05 0.0
0.0127724 -5.08474e-05 0.0
0.0126085 -4.70011e-05 0.0
0.012457 -4.35895e-05 0.0
0.0123164 -4.05529e-05 0.0
0.0121857 -3.78409e-05 0.0
0.0120637 -3.54108e-05 0.0
0.0119495 -3.32261e-05 0.0
0.0118424 -3.12559e-05 0.0
0.0117417 -2.94732e-05 0.0
0.0116467 -2.78554e-05 0.0
0.011557 -2.63825e-05 0.0
0.011472 -2.50376e-05 0.0
0.0113913 -2.38058e-05 0.0
0.0113146 -2.26743e-05 0.0
0.0112416 -2.16321e-05 0.0
0.0111719 -2.06694e-05 0.0
0.0111054 -1.97777e-05 0.0
0.0110417 -1.89498e-05 0.0
0.0109807 -1.8179e-05 0.0
0.0109222 -1.74597e-05 0.0
0.010866 -1.6787e-05 0.0
0.010812 -1.61564e-05 0.0
0.0107601 -1.5564e-05 0.0
0.01071 -1.50064e-05 0.0
0.0106617 -1.44806e-05 0.0
0.0106151 -1.39838e-05 0.0
0.0105702 -1.35136e-05 0.0
0.0105267 -1.30679e-05 0.0
0.0104847 -1.26447e-05 0.0
0.0104441 -1.22422e-05 0.0
0.0104047 -1.18591e-05 0.0
0.0103666 -1.14937e-05 0.0
0.0103296 -1.11449e-05 0.0
0.0102938 -1.08114e-05 0.0
0.0102591 -1.04923e-05 0.0
0.0102254 -1.01865e-05 0.0
0.0101926 -9.89314e-06 0.0
0.0101608 -9.61143e-06 0.0
0.01013 -9.34058e-06 0.0
0.0100999 -9.07988e-06 0.0
0.0100708 -8.82865e-06 0.0
0.0100424 -8.58626e-06 0.0
0.0100148 -8.3521e-06 0.0
0.00998801 -8.12557e-06 0.0
0.00996191 -7.90611e-06 0.0
0.00993652 -7.69314e-06 0.0
0.00991181 -7.48608e-06 0.0
0.00988776 -7.28437e-06 0.0
0.00986437 -7.08738e-06 0.0
0.00984161 -6.89449e-06 0.0
0.00981947 -6.70501e-06 0.0
0.00979794 -6.51821e-06 0.0
0.00977701 -6.33329e-06 0.0
0.00975667 -6.14934e-06 0.0
0.00973692 -5.96536e-06 0.0
0.00971776 -5.78022e-06 0.0
0.0096992 -5.59263e-06 0.0
0.00968124 -5.40113e-06 0.0
0.00966389 -5.20404e-06 0.0
0.00964717 -4.99949e-06 0.0
0.0096311 -4.78535e-06 0.0
0.00961572 -4.55926e-06 0.0
0.00960106 -4.31868e-06 0.0
0.00958717 -4.06092e-06 0.0
0.0095741 -3.78336e-06 0.0
0.00956192 -3.48376e-06 0.0
0.00955068 -3.16083e-06 0.0
0.00954048 -2.81548e-06 0.0
0.00953137 -2.45317e-06 0.0
0.00952342 -2.09002e-06 0.0
0.00951662 -1.77191e-06 0.0
0.00951083 -1.64991e-06 0.0
0.00950548 -2.34131e-06 0.0
0.00949856 -6.55702e-06 0.0
0.1 -0.027848 0.0
0.0909641 -0.0127898 0.0
0.0674478 -0.00614044 0.0
0.0529423 -0.00352547 0.0
0.044013 -0.00229051 0.0
0.038052 -0.00161098 0.0
0.0338007 -0.00119569 0.0
0.0306187 -0.000922442 0.0
0.02815 -0.000732582 0.0
0.0261814 -0.000595045 0.0
0.0245776 -0.000492085 0.0
0.0232481 -0.000412947 0.0
0.0221302 -0.000350793 0.0
0.0211791 -0.000301098 0.0
0.0203617 -0.000260766 0.0
0.019653 -0.000227616 0.0
0.0190337 -0.000200073 0.0
0.018489 -0.000176976 0.0
0.0180068 -0.000157449 0.0
0.0175776 -0.000140824 0.0
0.0171935 -0.00012658 0.0
0.016848 -0.000114306 0.0
0.016536 -0.000103677 0.0
0.0162529 -9.44283e-05 0.0
0.015995 -8.63463e-05 0.0
0.0157592 -7.92548e-05 0.0
0.0155426 -7.30086e-05 0.0
0.0153432 -6.74867e-05 0.0
0.0151588 -6.25877e-05 0.0
0.0149878 -5.82263e-05 0.0
0.0148287 -5.43306e-05 0.0
0.0146803 -5.08393e-05 0.0
0.0145414 -4.77003e-05 0.0
0.0144111 -4.48689e-05 0.0
0.0142886 -4.23071e-05 0.0
0.0141731 -3.99818e-05 0.0
0.0140639 -3.78649e-05 0.0
0.0139606 -3.59317e-05 0.0
0.0138625 -3.41612e-05 0.0
0.0137693 -3.2535e-05 0.0
0.0136805 -3.1037e-05 0.0
0.0135958 -2.96533e-05 0.0
0.013515 -2.83719e-05 0.0
0.0134376 -2.7182e-05 0.0
0.0133635 -2.60744e-05 0.0
0.0132924 -2.5041e-05 0.0
0.0132242 -2.40744e-05 0.0
0.0131586 -2.31684e-05 0.0
0.0130955 -2.23175e-05 0.0
0.0130347 -2.15166e-05 0.0
0.0129761 -2.07614e-05 0.0
0.0129195 -2.00479e-05 0.0
0.0128649 -1.93727e-05 0.0
0.0128122 -1.87327e-05 0.0
0.0127612 -1.81251e-05 0.0
0.0127118 -1.75474e-05 0.0
0.0126641 -1.69974e-05 0.0
0.0126178 -1.6473e-05 0.0
0.012573 -1.59724e-05 0.0
0.0125295 -1.54938e-05 0.0
0.0124874 -1.50359e-05 0.0
0.0124465 -1.45971e-05 0.0
0.0124068 -1.41763e-05 0.0
0.0123682 -1.37721e-05 0.0
0.0123308 -1.33836e-05 0.0
0.0122944 -1.30096e-05 0.0
0.012259 -1.26493e-05 0.0
0.0122246 -1.23017e-05 0.0
0.0121911 -1.19659e-05 0.0
0.0121586 -1.1641e-05 0.0
0.0121269 -1.13264e-05 0.0
0.0120962 -1.1021e-05 0.0
0.0120662 -1.07242e-05 0.0
0.012037 -1.04351e-05 0.0
0.0120087 -1.01528e-05 0.0
0.0119811 -9.87637e-06 0.0
0.0119542 -9.6049e-06 0.0
0.0119281 -9.33732e-06 0.0
0.0119027 -9.07247e-06 0.0
0.0118781 -8.80909e-06 0.0
0.0118541 -8.54574e-06 0.0
0.0118309 -8.2808e-06 0.0
0.0118084 -8.01244e-06 0.0
0.0117866 -7.73858e-06 0.0
0.0117656 -7.45686e-06 0.0
0.0117453 -7.16457e-06 0.0
0.0117258 -6.85872e-06 0.0
0.0117071 -6.53594e-06 0.0
0.0116893 -6.19261e-06 0.0
0.0116725 -5.82491e-06 0.0
0.0116566 -5.4291e-06 0.0
0.0116418 -5.00198e-06 0.0
0.0116281 -4.54173e-06 0.0
0.0116157 -4.04959e-06 0.0
0.0116046 -3.5333e-06 0.0
0.0115948 -3.01569e-06 0.0
0.0115865 -2.56099e-06 0.0
0.0115794 -2.37394e-06 0.0
0.0115729 -3.22291e-06 0.0
0.011565 -7.87396e-06 0.0
0.1 -0.0280706 0.0
0.0979965 -0.0152018 0.0
0.0762884 -0.0078358 0.0
0.0610301 -0.00462292 0.0
0.051153 -0.00303956 0.0
0.0444116 -0.00215142 0.0
0.0395476 -0.00160304 0.0
0.0358815 -0.00123994 0.0
0.033024 -0.000986583 0.0
0.0307379 -0.000802494 0.0
0.0288709 -0.000664372 0.0
0.0273203 -0.000558021 0.0
0.0260146 -0.000474377 0.0
0.0249023 -0.000407421 0.0
0.0239454 -0.000353027 0.0
0.023115 -0.000308283 0.0
0.022389 -0.00027108 0.0
0.0217499 -0.000239862 0.0
0.0211839 -0.000213455 0.0
0.0206799 -0.00019096 0.0
0.0202286 -0.000171677 0.0
0.0198227 -0.000155056 0.0
0.0194559 -0.000140656 0.0
0.0191231 -0.000128122 0.0
0.0188199 -0.000117165 0.0
0.0185425 -0.000107549 0.0
0.0182878 -9.90759e-05 0.0
0.0180532 -9.15838e-05 0.0
0.0178363 -8.49354e-05 0.0
0.0176351 -7.90155e-05 0.0
0.017448 -7.37266e-05 0.0
0.0172734 -6.89861e-05 0.0
0.0171101 -6.47234e-05 0.0
0.0169569 -6.0878e-05 0.0
0.0168128 -5.73984e-05 0.0
0.0166769 -5.42399e-05 0.0
0.0165486 -5.13643e-05 0.0
0.0164271 -4.87382e-05 0.0
0.0163118 -4.6333e-05 0.0
0.0162022 -4.41238e-05 0.0
0.0160979 -4.20889e-05 0.0
0.0159984 -4.02094e-05 0.0
0.0159034 -3.84688e-05 0.0
0.0158125 -3.68527e-05 0.0
0.0157255 -3.53484e-05 0.0
0.015642 -3.39448e-05 0.0
0.0155618 -3.26323e-05 0.0
0.0154848 -3.14021e-05 0.0
0.0154107 -3.02468e-05 0.0
0.0153393 -2.91595e-05 0.0
0.0152705 -2.81342e-05 0.0
0.0152041 -2.71658e-05 0.0
0.0151401 -2.62495e-05 0.0
0.0150782 -2.53809e-05 0.0
0.0150183 -2.45564e-05 0.0
0.0149604 -2.37726e-05 0.0
0.0149044 -2.30264e-05 0.0
0.0148501 -2.23149e-05 0.0
0.0147975 -2.16358e-05 0.0
0.0147465 -2.09868e-05 0.0
0.0146971 -2.03657e-05 0.0
0.0146491 -1.97706e-05 0.0
0.0146025 -1.91999e-05 0.0
0.0145573 -1.86519e-05 0.0
0.0145134 -1.81251e-05 0.0
0.0144707 -1.76181e-05 0.0
0.0144292 -1.71297e-05 0.0
0.0143889 -1.66584e-05 0.0
0.0143496 -1.62033e-05 0.0
0.0143115 -1.57631e-05 0.0
0.0142744 -1.53366e-05 0.0
0.0142383 -1.49229e-05 0.0
0.0142032 -1.45207e-05 0.0
0.014169 -1.4129e-05 0.0
0.0141357 -1.37466e-05 0.0
0.0141034 -1.33723e-05 0.0
0.0140719 -1.30047e-05 0.0
0.0140413 -1.26424e-05 0.0
0.0140115 -1.22839e-05 0.0
0.0139826 -1.19274e-05 0.0
0.0139546 -1.15712e-05 0.0
0.0139273 -1.12128e-05 0.0
0.0139009 -1.085e-05 0.0
0.0138754 -1.04798e-05 0.0
0.0138507 -1.00992e-05 0.0
0.0138269 -9.70448e-06 0.0
0.0138041 -9.2916e-06 0.0
0.0137822 -8.85605e-06 0.0
0.0137613 -8.39296e-06 0.0
0.0137415 -7.8972e-06 0.0
0.0137228 -7.36372e-06 0.0
0.0137054 -6.7882e-06 0.0
0.0136893 -6.16816e-06 0.0
0.0136747 -5.50523e-06 0.0
0.0136616 -4.80974e-06 0.0
0.0136501 -4.11208e-06 0.0
0.0136402 -3.49685e-06 0.0
0.0136318 -3.22509e-06 0.0
0.0136241 -4.20434e-06 0.0
0.0136153 -9.19292e-06 0.0
0.1 -0.0277036 0.0
0.103303 -0.0173424 0.0
0.0840382 -0.00955706 0.0
0.0685469 -0.00579886 0.0
0.0579634 -0.00386234 0.0
0.0505584 -0.00275293 0.0
0.0451448 -0.00206003 0.0
0.0410318 -0.001598 0.0
0.0378093 -0.0012741 0.0
0.0352216 -0.00103795 0.0
0.0331025 -0.000860334 0.0
0.0313388 -0.000723304 0.0
0.0298512 -0.000615364 0.0
0.0285823 -0.000528852 0.0
0.0274894 -0.000458497 0.0
0.0265402 -0.00040057 0.0
0.0257096 -0.000352369 0.0
0.024978 -0.000311895 0.0
0.0243296 -0.000277638 0.0
0.023752 -0.00024844 0.0
0.0232346 -0.0002234 0.0
0.0227691 -0.000201806 0.0
0.0223483 -0.000183089 0.0
0.0219664 -0.000166793 0.0
0.0216184 -0.000152542 0.0
0.0213 -0.000140031 0.0
0.0210076 -0.000129004 0.0
0.0207382 -0.000119252 0.0
0.0204892 -0.000110595 0.0
0.0202582 -0.000102886 0.0
0.0200434 -9.59966e-05 0.0
0.0198429 -8.98209e-05 0.0
0.0196554 -8.42668e-05 0.0
0.0194795 -7.9256e-05 0.0
0.0193141 -7.47213e-05 0.0