# vtk DataFile Version 3.0
Flow Field Data
ASCII
DATASET STRUCTURED_GRID
DIMENSIONS 20 20 1
POINTS 400 float
0 0 0.0
0.005 0 0.0
0.01 0 0.0
0.015 0 0.0
0.02 0 0.0
0.025 0 0.0
0.03 0 0.0
0.035 0 0.0
0.04 0 0.0
0.045 0 0.0
0.05 0 0.0
0.055 0 0.0
0.06 0 0.0
0.065 0 0.0
0.07 0 0.0
0.075 0 0.0
0.08 0 0.0
0.085 0 0.0
0.09 0 0.0
0.095 0 0.0
0 0.005 0.0
0.005 0.005 0.0
0.01 0.005 0.0
0.015 0.005 0.0
0.02 0.005 0.0
0.025 0.005 0.0
0.03 0.005 0.0
0.035 0.005 0.0
0.04 0.005 0.0
0.045 0.005 0.0
0.05 0.005 0.0
0.055 0.005 0.0
0.06 0.005 0.0
0.065 0.005 0.0
0.07 0.005 0.0
0.075 0.005 0.0
0.08 0.005 0.0
0.085 0.005 0.0
0.09 0.005 0.0
0.095 0.005 0.0
0 0.01 0.0
0.005 0.01 0.0
0.01 0.01 0.0
0.015 0.01 0.0
0.02 0.01 0.0
0.025 0.01 0.0
0.03 0.01 0.0
0.035 0.01 0.0
0.04 0.01 0.0
0.045 0.01 0.0
0.05 0.01 0.0
0.055 0.01 0.0
0.06 0.01 0.0
0.065 0.01 0.0
0.07 0.01 0.0
0.075 0.01 0.0
0.08 0.01 0.0
0.085 0.01 0.0
0.09 0.01 0.0
0.095 0.01 0.0
0 0.015 0.0
0.005 0.015 0.0
0.01 0.015 0.0
0.015 0.015 0.0
0.02 0.015 0.0
0.025 0.015 0.0
0.03 0.015 0.0
0.035 0.015 0.0
0.04 0.015 0.0
0.045 0.015 0.0
0.05 0.015 0.0
0.055 0.015 0.0
0.06 0.015 0.0
0.065 0.015 0.0
0.07 0.015 0.0
0.075 0.015 0.0
0.08 0.015 0.0
0.085 0.015 0.0
0.09 0.015 0.0
0.095 0.015 0.0
0 0.02 0.0
0.005 0.02 0.0
0.01 0.02 0.0
0.015 0.02 0.0
0.02 0.02 0.0
0.025 0.02 0.0
0.03 0.02 0.0
0.035 0.02 0.0
0.04 0.02 0.0
0.045 0.02 0.0
0.05 0.02 0.0
0.055 0.02 0.0
0.06 0.02 0.0
0.065 0.02 0.0
0.07 0.02 0.0
0.075 0.02 0.0
0.08 0.02 0.0
0.085 0.02 0.0
0.09 0.02 0.0
0.095 0.02 0.0
0 0.025 0.0
0.005 0.025 0.0
0.01 0.025 0.0
0.015 0.025 0.0
0.02 0.025 0.0
0.025 0.025 0.0
0.03 0.025 0.0
0.035 0.025 0.0
0.04 0.025 0.0
0.045 0.025 0.0
0.05 0.025 0.0
0.055 0.025 0.0
0.06 0.025 0.0
0.065 0.025 0.0
0.07 0.025 0.0
0.075 0.025 0.0
0.08 0.025 0.0
0.085 0.025 0.0
0.09 0.025 0.0
0.095 0.025 0.0
0 0.03 0.0
0.005 0.03 0.0
0.01 0.03 0.0
0.015 0.03 0.0
0.02 0.03 0.0
0.025 0.03 0.0
0.03 0.03 0.0
0.035 0.03 0.0
0.04 0.03 0.0
0.045 0.03 0.0
0.05 0.03 0.0
0.055 0.03 0.0
0.06 0.03 0.0
0.065 0.03 0.0
0.07 0.03 0.0
0.075 0.03 0.0
0.08 0.03 0.0
0.085 0.03 0.0
0.09 0.03 0.0
0.095 0.03 0.0
0 0.035 0.0
0.005 0.035 0.0
0.01 0.035 0.0
0.015 0.035 0.0
0.02 0.035 0.0
0.025 0.035 0.0
0.03 0.035 0.0
0.035 0.035 0.0
0.04 0.035 0.0
0.045 0.035 0.0
0.05 0.035 0.0
0.055 0.035 0.0
0.06 0.035 0.0
0.065 0.035 0.0
0.07 0.035 0.0
0.075 0.035 0.0
0.08 0.035 0.0
0.085 0.035 0.0
0.09 0.035 0.0
0.095 0.035 0.0
0 0.04 0.0
0.005 0.04 0.0
0.01 0.04 0.0
0.015 0.04 0.0
0.02 0.04 0.0
0.025 0.04 0.0
0.03 0.04 0.0
0.035 0.04 0.0
0.04 0.04 0.0
0.045 0.04 0.0
0.05 0.04 0.0
0.055 0.04 0.0
0.06 0.04 0.0
0.065 0.04 0.0
0.07 0.04 0.0
0.075 0.04 0.0
0.08 0.04 0.0
0.085 0.04 0.0
0.09 0.04 0.0
0.095 0.04 0.0
0 0.045 0.0
0.005 0.045 0.0
0.01 0.045 0.0
0.015 0.045 0.0
0.02 0.045 0.0
0.025 0.045 0.0
0.03 0.045 0.0
0.035 0.045 0.0
0.04 0.045 0.0
0.045 0.045 0.0
0.05 0.045 0.0
0.055 0.045 0.0
0.06 0.045 0.0
0.065 0.045 0.0
0.07 0.045 0.0
0.075 0.045 0.0
0.08 0.045 0.0
0.085 0.045 0.0
0.09 0.045 0.0
0.095 0.045 0.0
0 0.05 0.0
0.005 0.05 0.0
0.01 0.05 0.0
0.015 0.05 0.0
0.02 0.05 0.0
0.025 0.05 0.0
0.03 0.05 0.0
0.035 0.05 0.0
0.04 0.05 0.0
0.045 0.05 0.0
0.05 0.05 0.0
0.055 0.05 0.0
0.06 0.05 0.0
0.065 0.05 0.0
0.07 0.05 0.0
0.075 0.05 0.0
0.08 0.05 0.0
0.085 0.05 0.0
0.09 0.05 0.0
0.095 0.05 0.0
0 0.055 0.0
0.005 0.055 0.0
0.01 0.055 0.0
0.015 0.055 0.0
0.02 0.055 0.0
0.025 0.055 0.0
0.03 0.055 0.0
0.035 0.055 0.0
0.04 0.055 0.0
0.045 0.055 0.0
0.05 0.055 0.0
0.055 0.055 0.0
0.06 0.055 0.0
0.065 0.055 0.0
0.07 0.055 0.0
0.075 0.055 0.0
0.08 0.055 0.0
0.085 0.055 0.0
0.09 0.055 0.0
0.095 0.055 0.0
0 0.06 0.0
0.005 0.06 0.0
0.01 0.06 0.0
0.015 0.06 0.0
0.02 0.06 0.0
0.025 0.06 0.0
0.03 0.06 0.0
0.035 0.06 0.0
0.04 0.06 0.0
0.045 0.06 0.0
0.05 0.06 0.0
0.055 0.06 0.0
0.06 0.06 0.0
0.065 0.06 0.0
0.07 0.06 0.0
0.075 0.06 0.0
0.08 0.06 0.0
0.085 0.06 0.0
0.09 0.06 0.0
0.095 0.06 0.0
0 0.065 0.0
0.005 0.065 0.0
0.01 0.065 0.0
0.015 0.065 0.0
0.02 0.065 0.0
0.025 0.065 0.0
0.03 0.065 0.0
0.035 0.065 0.0
0.04 0.065 0.0
0.045 0.065 0.0
0.05 0.065 0.0
0.055 0.065 0.0
0.06 0.065 0.0
0.065 0.065 0.0
0.07 0.065 0.0
0.075 0.065 0.0
0.08 0.065 0.0
0.085 0.065 0.0
0.09 0.065 0.0
0.095 0.065 0.0
0 0.07 0.0
0.005 0.07 0.0
0.01 0.07 0.0
0.015 0.07 0.0
0.02 0.07 0.0
0.025 0.07 0.0
0.03 0.07 0.0
0.035 0.07 0.0
0.04 0.07 0.0
0.045 0.07 0.0
0.05 0.07 0.0
0.055 0.07 0.0
0.06 0.07 0.0
0.065 0.07 0.0
0.07 0.07 0.0
0.075 0.07 0.0
0.08 0.07 0.0
0.085 0.07 0.0
0.09 0.07 0.0
0.095 0.07 0.0
0 0.075 0.0
0.005 0.075 0.0
0.01 0.075 0.0
0.015 0.075 0.0
0.02 0.075 0.0
0.025 0.075 0.0
0.03 0.075 0.0
0.035 0.075 0.0
0.04 0.075 0.0
0.045 0.075 0.0
0.05 0.075 0.0
0.055 0.075 0.0
0.06 0.075 0.0
0.065 0.075 0.0
0.07 0.075 0.0
0.075 0.075 0.0
0.08 0.075 0.0
0.085 0.075 0.0
0.09 0.075 0.0
0.095 0.075 0.0
0 0.08 0.0
0.005 0.08 0.0
0.01 0.08 0.0
0.015 0.08 0.0
0.02 0.08 0.0
0.025 0.08 0.0
0.03 0.08 0.0
0.035 0.08 0.0
0.04 0.08 0.0
0.045 0.08 0.0
0.05 0.08 0.0
0.055 0.08 0.0
0.06 0.08 0.0
0.065 0.08 0.0
0.07 0.08 0.0
0.075 0.08 0.0
0.08 0.08 0.0
0.085 0.08 0.0
0.09 0.08 0.0
0.095 0.08 0.0
0 0.085 0.0
0.005 0.085 0.0
0.01 0.085 0.0
0.015 0.085 0.0
0.02 0.085 0.0
0.025 0.085 0.0
0.03 0.085 0.0
0.035 0.085 0.0
0.04 0.085 0.0
0.045 0.085 0.0
0.05 0.085 0.0
0.055 0.085 0.0
0.06 0.085 0.0
0.065 0.085 0.0
0.07 0.085 0.0
0.075 0.085 0.0
0.08 0.085 0.0
0.085 0.085 0.0
0.09 0.085 0.0
0.095 0.085 0.0
0 0.09 0.0
0.005 0.09 0.0
0.01 0.09 0.0
0.015 0.09 0.0
0.02 0.09 0.0
0.025 0.09 0.0
0.03 0.09 0.0
0.035 0.09 0.0
0.04 0.09 0.0
0.045 0.09 0.0
0.05 0.09 0.0
0.055 0.09 0.0
0.06 0.09 0.0
0.065 0.09 0.0
0.07 0.09 0.0
0.075 0.09 0.0
0.08 0.09 0.0
0.085 0.09 0.0
0.09 0.09 0.0
0.095 0.09 0.0
0 0.095 0.0
0.005 0.095 0.0
0.01 0.095 0.0
0.015 0.095 0.0
0.02 0.095 0.0
0.025 0.095 0.0
0.03 0.095 0.0
0.035 0.095 0.0
0.04 0.095 0.0
0.045 0.095 0.0
0.05 0.095 0.0
0.055 0.095 0.0
0.06 0.095 0.0
0.065 0.095 0.0
0.07 0.095 0.0
0.075 0.095 0.0
0.08 0.095 0.0
0.085 0.095 0.0
0.09 0.095 0.0
0.095 0.095 0.0
POINT_DATA 400
VECTORS velocity float
0 0.5 0.0
0 0 0.0
0 0 0.0
0 0 0.0
0 0 0.0
0 0 0.0
0 0 0.0
0 0 0.0
0 0 0.0
0 0 0.0
0 0 0.0
0 0 0.0
0 0 0.0
0 0 0.0
0 0 0.0
0 0 0.0
0 0 0.0
0 0 0.0
0 0 0.0
0 0 0.0
0 1 0.0
0.141499 0.415799 0.0
0.0340195 0.185376 0.0
-0.0344906 0.0835933 0.0
-0.0675411 0.0357457 0.0
-0.079786 0.0124827 0.0
-0.0808783 0.0010013 0.0
-0.0761974 -0.00463078 0.0
-0.0686609 -0.00726822 0.0
-0.0598709 -0.00832505 0.0
-0.0507296 -0.00852058 0.0
-0.0417592 -0.00822962 0.0
-0.0332708 -0.0076495 0.0
-0.0254573 -0.00688078 0.0
-0.0184514 -0.0059677 0.0
-0.0123653 -0.00492199 0.0
-0.00732128 -0.00374472 0.0
-0.00347252 -0.00245797 0.0
-0.000997687 -0.00115204 0.0
0 0 0.0
0 1 0.0
0.138773 0.523279 0.0
0.0548678 0.253886 0.0
-0.0254338 0.116644 0.0
-0.0781767 0.0479906 0.0
-0.105811 0.013575 0.0
-0.11588 -0.00367963 0.0
-0.114856 -0.0121673 0.0
-0.107255 -0.0160582 0.0
-0.0960281 -0.0174664 0.0
-0.0830646 -0.017491 0.0
-0.0695702 -0.0167181 0.0
-0.0563181 -0.015463 0.0
-0.0438114 -0.0138866 0.0
-0.0323921 -0.0120538 0.0
-0.0223168 -0.00996602 0.0
-0.0138107 -0.00759348 0.0
-0.00710184 -0.0049328 0.0
-0.00242724 -0.00214973 0.0
0 0 0.0
0 1 0.0
0.110619 0.607184 0.0
0.0538631 0.334187 0.0
-0.0149776 0.169387 0.0
-0.0702017 0.0756252 0.0
-0.10544 0.023644 0.0
-0.122968 -0.0047041 0.0
-0.127314 -0.0197683 0.0
-0.122739 -0.0272849 0.0
-0.11258 -0.0304298 0.0
-0.0992557 -0.0309854 0.0
-0.0844566 -0.0299703 0.0
-0.06934 -0.0279696 0.0
-0.0546923 -0.0253059 0.0
-0.0410533 -0.0221292 0.0
-0.0288117 -0.0184722 0.0
-0.018277 -0.0143023 0.0
-0.00973589 -0.0096074 0.0
-0.00350241 -0.00457697 0.0
0 0 0.0
0 1 0.0
0.0819671 0.66394 0.0
0.043639 0.403028 0.0
-0.00976719 0.224611 0.0
-0.0586795 0.110863 0.0
-0.0942305 0.0411728 0.0
-0.11506 -0.000358283 0.0
-0.123285 -0.0243431 0.0
-0.122021 -0.0374443 0.0
-0.114241 -0.0437542 0.0
-0.102387 -0.0457845 0.0
-0.0883156 -0.0450868 0.0
-0.0733784 -0.0426174 0.0
-0.0585303 -0.0389449 0.0
-0.0444395 -0.0343708 0.0
-0.0315834 -0.0290068 0.0
-0.0203304 -0.0228434 0.0
-0.0110171 -0.0158409 0.0
-0.00403935 -0.00807938 0.0
0 0 0.0
0 1 0.0
0.057299 0.702268 0.0
0.0311034 0.456434 0.0
-0.00848877 0.273523 0.0
-0.0480586 0.146414 0.0
-0.0794741 0.0620025 0.0
-0.0998536 0.00786692 0.0
-0.109604 -0.0256074 0.0
-0.110635 -0.0452243 0.0
-0.105241 -0.0556085 0.0
-0.0955519 -0.0598557 0.0
-0.0833172 -0.060024 0.0
-0.06988 -0.0574655 0.0
-0.0562233 -0.0530356 0.0
-0.0430485 -0.0472269 0.0
-0.0308592 -0.0402599 0.0
-0.0200431 -0.0321567 0.0
-0.0109599 -0.0228186 0.0
-0.00405045 -0.0121187 0.0
0 0 0.0
0 1 0.0
0.0365532 0.728464 0.0
0.01884 0.496026 0.0
-0.00928095 0.313093 0.0
-0.0390282 0.17783 0.0
-0.0640673 0.082382 0.0
-0.0813817 0.0176177 0.0
-0.0905179 -0.0245766 0.0
-0.0924882 -0.0506179 0.0
-0.0889004 -0.0652982 0.0
-0.0814242 -0.0720903 0.0
-0.071527 -0.0734613 0.0
-0.0603821 -0.0711222 0.0
-0.0488717 -0.0662103 0.0
-0.0376345 -0.0594163 0.0
-0.0271315 -0.051076 0.0
-0.0177203 -0.0412399 0.0
-0.00973915 -0.029728 0.0
-0.00361284 -0.0161692 0.0
0 0 0.0
0 1 0.0
0.0187407 0.746177 0.0
0.00749124 0.524147 0.0
-0.0109717 0.34284 0.0
-0.0312204 0.202869 0.0
-0.0488705 0.0996964 0.0
-0.0614894 0.0267538 0.0
-0.0684041 -0.0226064 0.0
-0.0700955 -0.0542057 0.0
-0.0676063 -0.0727744 0.0
-0.0621218 -0.0819876 0.0
-0.0547331 -0.0846062 0.0
-0.0463351 -0.0826326 0.0
-0.0376086 -0.0774475 0.0
-0.0290477 -0.0699192 0.0
-0.0210081 -0.0604872 0.0
-0.0137663 -0.0492211 0.0
-0.00758932 -0.0358543 0.0
-0.00282185 -0.019782 0.0
0 0 0.0
0 1 0.0
0.00278021 0.757427 0.0
-0.00305132 0.54261 0.0
-0.0129574 0.363089 0.0
-0.0240718 0.220519 0.0
-0.0338652 0.112315 0.0
-0.0408187 0.0336685 0.0
-0.0444393 -0.0209149 0.0
-0.0449595 -0.0566949 0.0
-0.0429907 -0.0782589 0.0
-0.0392544 -0.0893763 0.0
-0.0344217 -0.0930042 0.0
-0.0290406 -0.091359 0.0
-0.0235206 -0.0860083 0.0
-0.0181506 -0.0779589 0.0
-0.0131315 -0.0677291 0.0
-0.00861708 -0.0553981 0.0
-0.00476109 -0.0406218 0.0
-0.00177483 -0.0226039 0.0
0 0 0.0
0 1 0.0
-0.0123416 0.763258 0.0
-0.0131538 0.552516 0.0
-0.0149352 0.374203 0.0
-0.0170176 0.230312 0.0
-0.0186508 0.119269 0.0
-0.0193773 0.037289 0.0
-0.0190909 -0.0203947 0.0
-0.0179354 -0.0586637 0.0
-0.01617 -0.0819952 0.0
-0.0140656 -0.0942089 0.0
-0.0118475 -0.0983853 0.0
-0.00967402 -0.096879 0.0
-0.00764067 -0.0913783 0.0
-0.00579418 -0.0829779 0.0
-0.00415123 -0.0722435 0.0
-0.00271766 -0.0592541 0.0
-0.00150808 -0.0436081 0.0
-0.000567825 -0.0243787 0.0
0 0 0.0
0 1 0.0
-0.0275859 0.76407 0.0
-0.0232488 0.554298 0.0
-0.0166992 0.376286 0.0
-0.00947173 0.231945 0.0
-0.00263446 0.119995 0.0
0.0031447 0.0370027 0.0
0.00753216 -0.0215502 0.0
0.0104509 -0.0604292 0.0
0.0119997 -0.0840995 0.0
0.0123809 -0.0964271 0.0
0.0118432 -0.100559 0.0
0.0106418 -0.0989124 0.0
0.00901375 -0.0932248 0.0
0.00716574 -0.0846209 0.0
0.00527164 -0.0736771 0.0
0.00347729 -0.0604636 0.0
0.00191144 -0.0445483 0.0
0.000702438 -0.0249465 0.0
0 0 0.0
0 1 0.0
-0.0439367 0.759733 0.0
-0.0337582 0.547748 0.0
-0.0179856 0.369058 0.0
-0.000745799 0.225108 0.0
0.0148995 0.114216 0.0
0.0271694 0.0326152 0.0
0.0354007 -0.0244689 0.0
0.039712 -0.061978 0.0
0.0406636 -0.0844806 0.0
0.0389962 -0.0958894 0.0
0.0354627 -0.0993574 0.0
0.0307373 -0.0972843 0.0
0.02538 -0.0913768 0.0
0.0198342 -0.0827268 0.0
0.0144454 -0.0718827 0.0
0.00949198 -0.0588978 0.0
0.00522719 -0.0433393 0.0
0.00193463 -0.0242441 0.0
0 0 0.0
0 1 0.0
-0.062513 0.749555 0.0
-0.0450378 0.531975 0.0
-0.0183157 0.351819 0.0
0.0100471 0.209463 0.0
0.0347312 0.101946 0.0
0.0530253 0.0243839 0.0
0.0642746 -0.0287802 0.0
0.0690937 -0.0629296 0.0
0.0686974 -0.0828133 0.0
0.064453 -0.0923559 0.0
0.0576313 -0.094632 0.0
0.0492984 -0.091927 0.0
0.0402924 -0.0858311 0.0
0.0312459 -0.077338 0.0
0.0226316 -0.0669293 0.0
0.0148204 -0.054633 0.0
0.0081511 -0.0400467 0.0
0.00301985 -0.0223095 0.0
0 0 0.0
0 1 0.0
-0.0847412 0.73208 0.0
-0.0572623 0.505253 0.0
-0.0167735 0.323456 0.0
0.0240673 0.184779 0.0
0.0575486 0.0836522 0.0
0.0806225 0.0131346 0.0
0.0933178 -0.0335993 0.0
0.0972165 -0.0625333 0.0
0.0944204 -0.0785689 0.0
0.0869813 -0.0855342 0.0
0.0766475 -0.0862991 0.0
0.0647949 -0.082921 0.0
0.0524506 -0.0767846 0.0
0.0403565 -0.0687238 0.0
0.029047 -0.0591181 0.0
0.0189305 -0.0479637 0.0
0.0103792 -0.0349155 0.0
0.00384151 -0.0192896 0.0
0 0 0.0
0 1 0.0
-0.112628 0.704601 0.0
-0.0700978 0.464764 0.0
-0.0116569 0.282615 0.0
0.0426887 0.151297 0.0
0.0835113 0.0605783 0.0
0.108862 0.000439361 0.0
0.120542 -0.0374979 0.0
0.121645 -0.0597373 0.0
0.115309 -0.0711298 0.0
0.104207 -0.0752004 0.0
0.0904175 -0.0744466 0.0
0.0754689 -0.0705766 0.0
0.0604406 -0.0646905 0.0
0.046078 -0.0574143 0.0
0.0328988 -0.0490015 0.0
0.0212909 -0.0394124 0.0
0.0116068 -0.0283778 0.0
0.00428022 -0.0154481 0.0
0 0 0.0
0 1 0.0
-0.149159 0.66207 0.0
-0.0817592 0.406324 0.0
-3.32203e-05 0.228269 0.0
0.0669395 0.110475 0.0
0.111188 0.0352273 0.0
0.134599 -0.0112403 0.0
0.142045 -0.0386011 0.0
0.138435 -0.0534015 0.0
0.127788 -0.0600274 0.0
0.113101 -0.0614108 0.0
0.0964945 -0.0594979 0.0
0.0794174 -0.0555484 0.0
0.0628324 -0.0503279 0.0
0.0473728 -0.0442352 0.0
0.0334659 -0.0373936 0.0
0.0214311 -0.0297283 0.0
0.0115635 -0.0210512 0.0
0.00422586 -0.0111679 0.0
0 0 0.0
0 1 0.0
-0.198406 0.59467 0.0
-0.0865003 0.324598 0.0
0.0221607 0.161297 0.0
0.0954392 0.0662268 0.0
0.135306 0.0118155 0.0
0.151059 -0.0186855 0.0
0.151173 -0.0349917 0.0
0.141836 -0.0427546 0.0
0.127242 -0.04534 0.0
0.110138 -0.0448045 0.0
0.0922882 -0.0424208 0.0
0.0748029 -0.0389634 0.0
0.0583702 -0.0348682 0.0
0.0434186 -0.0303283 0.0
0.0302344 -0.0253588 0.0
0.019045 -0.0198607 0.0
0.0100776 -0.0137136 0.0
0.00360224 -0.00694202 0.0
0 0 0.0
0 1 0.0
-0.261371 0.482764 0.0
-0.0694989 0.215937 0.0
0.0562028 0.0880181 0.0
0.118643 0.0263599 0.0
0.142878 -0.00393689 0.0
0.146081 -0.0187995 0.0
0.138121 -0.0256555 0.0
0.124537 -0.0281604 0.0
0.108484 -0.028236 0.0
0.0917834 -0.0269546 0.0
0.0754885 -0.0249355 0.0
0.0601996 -0.0225306 0.0
0.0462514 -0.0199167 0.0
0.0338363 -0.017144 0.0
0.0230898 -0.0141694 0.0
0.0141501 -0.0108933 0.0
0.0071923 -0.0072382 0.0
0.00242056 -0.00333978 0.0
0 0 0.0
0 1 0.0
-0.299797 0.290892 0.0
-0.0089053 0.090235 0.0
0.0813297 0.0255779 0.0
0.106908 0.00212526 0.0
0.109033 -0.00714054 0.0
0.101892 -0.0108391 0.0
0.0910532 -0.0120717 0.0
0.0789815 -0.0121073 0.0
0.0668741 -0.0115353 0.0
0.0553388 -0.0106598 0.0
0.044679 -0.00964656 0.0
0.0350325 -0.00858244 0.0
0.02645 -0.00750163 0.0
0.0189484 -0.00639749 0.0
0.0125509 -0.00522971 0.0
0.00732119 -0.00393551 0.0
0.00338568 -0.00246646 0.0
0.000919214 -0.000919214 0.0
0 0 0.0
0 0.5 0.0
0 0 0.0
0 0 0.0
0 0 0.0
0 0 0.0
0 0 0.0
0 0 0.0
0 0 0.0
0 0 0.0
0 0 0.0
0 0 0.0
0 0 0.0
0 0 0.0
0 0 0.0
0 0 0.0
0 0 0.0
0 0 0.0
0 0 0.0
0 0 0.0
0 0 0.0
SCALARS pressure float 1
LOOKUP_TABLE default
-0.4199
-0.839799
-0.794661
-0.636366
-0.479698
-0.348952
-0.245169
-0.164194
-0.10153
-0.0534529
-0.0170841
0.00976996
0.0287998
0.0413392
0.0484848
0.0512053
0.0504658
0.0473987
0.0435792
0.0435792
0
-0.839799
-0.794661
-0.636366
-0.479698
-0.348952
-0.245169
-0.164194
-0.10153
-0.0534529
-0.0170841
0.00976996
0.0287998
0.0413392
0.0484848
0.0512053
0.0504658
0.0473987
0.0435792
0.0435792
0
-0.487937
-0.524193
-0.470101
-0.385669
-0.299222
-0.22158
-0.15579
-0.101819
-0.0585749
-0.0247109
0.00107632
0.0199549
0.0329487
0.0409608
0.0448142
0.0453018
0.0432358
0.0394518
0.0394518
0
-0.315497
-0.351904
-0.338307
-0.29583
-0.241882
-0.186874
-0.136095
-0.0918168
-0.0546989
-0.0245981
-0.00100105
0.0167499
0.0293437
0.0374483
0.0416883
0.0426326
0.0407644
0.0363881
0.0363881
0
-0.211975
-0.238421
-0.238898
-0.218547
-0.185836
-0.148022
-0.110074
-0.0749555
-0.0441971
-0.0184094
0.00234859
0.0183231
0.0299083
0.037549
0.041677
0.0426604
0.0407413
0.0359345
0.0359345
0
-0.140561
-0.158398
-0.162925
-0.15374
-0.134192
-0.108623
-0.0808621
-0.053711
-0.0289558
-0.00757029
0.0100449
0.0238551
0.0340337
0.0408471
0.0445726
0.0454308
0.0435181
0.0387241
0.0387241
0
-0.0862635
-0.0974544
-0.102253
-0.0985322
-0.0870126
-0.0699777
-0.0500795
-0.0296268
-0.0103092
0.00681064
0.0211811
0.0326119
0.0411366
0.0469005
0.0500752
0.0507905
0.0490734
0.0447864
0.0447864
0
-0.0415559
-0.0472255
-0.0507845
-0.0496091
-0.0430678
-0.0320845
-0.0183276
-0.00353435
0.0108717
0.0239094
0.0350136
0.0439395
0.0506523
0.0552299
0.0577845
0.0584022
0.0570943
0.0537531
0.0537531
0
-0.00186288
-0.00240531
-0.00403467
-0.00394233
-0.000705775
0.00569336
0.0143861
0.0241945
0.0340343
0.0431032
0.0509121
0.0572321
0.0620139
0.0653084
0.0672031
0.0677744
0.067052
0.0649903
0.0649903
0
0.0361212
0.0408311
0.0414968
0.0411337
0.0417902
0.0442495
0.0483411
0.0534271
0.0587944
0.0638706
0.0682929
0.0718894
0.0746264
0.076551
0.077745
0.0782932
0.0782626
0.0776873
0.0776873
0
0.0752298
0.0857151
0.0888456
0.0880463
0.086083
0.0845214
0.0838866
0.0840866
0.0847952
0.0856898
0.0865501
0.0872723
0.0878434
0.0883093
0.0887477
0.0892544
0.0899376
0.0909182
0.0909182
0
0.118358
0.135496
0.141004
0.139142
0.133739
0.127343
0.121264
0.115988
0.111575
0.107942
0.10499
0.102664
0.10095
0.0998741
0.0994929
0.0998993
0.101233
0.103698
0.103698
0
0.169023
0.194023
0.201294
0.196807
0.186161
0.17328
0.160422
0.148671
0.138439
0.129819
0.122776
0.117243
0.113159
0.11049
0.109236
0.10946
0.111307
0.115043
0.115043
0
0.232226
0.266509
0.273732
0.263476
0.244396
0.222381
0.20078
0.181219
0.164333
0.150254
0.138892
0.130075
0.123623
0.119382
0.117253
0.117219
0.119388
0.12405
0.12405
0
0.316189
0.360749
0.363339
0.341379
0.308703
0.273766
0.240928
0.212066
0.187737
0.16787
0.152136
0.140133
0.131468
0.125807
0.122891
0.122574
0.124863
0.129998
0.129998
0
0.436509
0.489173
0.476072
0.431665
0.377666
0.325011
0.278277
0.238839
0.206627
0.181003
0.161169
0.146347
0.13585
0.129101
0.125636
0.125121
0.127379
0.132484
0.132484
0
0.627775
0.67183
0.617193
0.532169
0.446685
0.371379
0.308769
0.258321
0.218546
0.187808
0.164615
0.147701
0.136025
0.128741
0.125161
0.124715
0.12695
0.131591
0.131591
0
0.981634
0.937039
0.784294
0.632659
0.505862
0.405207
0.32691
0.266691
0.220864
0.186481
0.161235
0.143342
0.13142
0.124381
0.121339
0.121497
0.124048
0.128115
0.128115
0
1.79798
1.29168
0.945552
0.707232
0.538509
0.416292
0.326504
0.260159
0.211245
0.175567
0.150116
0.132696
0.12168
0.11584
0.114191
0.115812
0.119598
0.123857
0.123857
0.89899
1.79798
1.29168
0.945552
0.707232
0.538509
0.416292
0.326504
0.260159
0.211245
0.175567
0.150116
0.132696
0.12168
0.11584
0.114191
0.115812
0.119598
0.123857
0.123857
