# vtk DataFile Version 3.0
Flow Field Data
ASCII
DATASET STRUCTURED_GRID
DIMENSIONS 20 20 1
POINTS 400 float
0 0 0.0
0.005 0 0.0
0.01 0 0.0
0.015 0 0.0
0.02 0 0.0
0.025 0 0.0
0.03 0 0.0
0.035 0 0.0
0.04 0 0.0
0.045 0 0.0
0.05 0 0.0
0.055 0 0.0
0.06 0 0.0
0.065 0 0.0
0.07 0 0.0
0.075 0 0.0
0.08 0 0.0
0.085 0 0.0
0.09 0 0.0
0.095 0 0.0
0 0.005 0.0
0.005 0.005 0.0
0.01 0.005 0.0
0.015 0.005 0.0
0.02 0.005 0.0
0.025 0.005 0.0
0.03 0.005 0.0
0.035 0.005 0.0
0.04 0.005 0.0
0.045 0.005 0.0
0.05 0.005 0.0
0.055 0.005 0.0
0.06 0.005 0.0
0.065 0.005 0.0
0.07 0.005 0.0
0.075 0.005 0.0
0.08 0.005 0.0
0.085 0.005 0.0
0.09 0.005 0.0
0.095 0.005 0.0
0 0.01 0.0
0.005 0.01 0.0
0.01 0.01 0.0
0.015 0.01 0.0
0.02 0.01 0.0
0.025 0.01 0.0
0.03 0.01 0.0
0.035 0.01 0.0
0.04 0.01 0.0
0.045 0.01 0.0
0.05 0.01 0.0
0.055 0.01 0.0
0.06 0.01 0.0
0.065 0.01 0.0
0.07 0.01 0.0
0.075 0.01 0.0
0.08 0.01 0.0
0.085 0.01 0.0
0.09 0.01 0.0
0.095 0.01 0.0
0 0.015 0.0
0.005 0.015 0.0
0.01 0.015 0.0
0.015 0.015 0.0
0.02 0.015 0.0
0.025 0.015 0.0
0.03 0.015 0.0
0.035 0.015 0.0
0.04 0.015 0.0
0.045 0.015 0.0
0.05 0.015 0.0
0.055 0.015 0.0
0.06 0.015 0.0
0.065 0.015 0.0
0.07 0.015 0.0
0.075 0.015 0.0
0.08 0.015 0.0
0.085 0.015 0.0
0.09 0.015 0.0
0.095 0.015 0.0
0 0.02 0.0
0.005 0.02 0.0
0.01 0.02 0.0
0.015 0.02 0.0
0.02 0.02 0.0
0.025 0.02 0.0
0.03 0.02 0.0
0.035 0.02 0.0
0.04 0.02 0.0
0.045 0.02 0.0
0.05 0.02 0.0
0.055 0.02 0.0
0.06 0.02 0.0
0.065 0.02 0.0
0.07 0.02 0.0
0.075 0.02 0.0
0.08 0.02 0.0
0.085 0.02 0.0
0.09 0.02 0.0
0.095 0.02 0.0
0 0.025 0.0
0.005 0.025 0.0
0.01 0.025 0.0
0.015 0.025 0.0
0.02 0.025 0.0
0.025 0.025 0.0
0.03 0.025 0.0
0.035 0.025 0.0
0.04 0.025 0.0
0.045 0.025 0.0
0.05 0.025 0.0
0.055 0.025 0.0
0.06 0.025 0.0
0.065 0.025 0.0
0.07 0.025 0.0
0.075 0.025 0.0
0.08 0.025 0.0
0.085 0.025 0.0
0.09 0.025 0.0
0.095 0.025 0.0
0 0.03 0.0
0.005 0.03 0.0
0.01 0.03 0.0
0.015 0.03 0.0
0.02 0.03 0.0
0.025 0.03 0.0
0.03 0.03 0.0
0.035 0.03 0.0
0.04 0.03 0.0
0.045 0.03 0.0
0.05 0.03 0.0
0.055 0.03 0.0
0.06 0.03 0.0
0.065 0.03 0.0
0.07 0.03 0.0
0.075 0.03 0.0
0.08 0.03 0.0
0.085 0.03 0.0
0.09 0.03 0.0
0.095 0.03 0.0
0 0.035 0.0
0.005 0.035 0.0
0.01 0.035 0.0
0.015 0.035 0.0
0.02 0.035 0.0
0.025 0.035 0.0
0.03 0.035 0.0
0.035 0.035 0.0
0.04 0.035 0.0
0.045 0.035 0.0
0.05 0.035 0.0
0.055 0.035 0.0
0.06 0.035 0.0
0.065 0.035 0.0
0.07 0.035 0.0
0.075 0.035 0.0
0.08 0.035 0.0
0.085 0.035 0.0
0.09 0.035 0.0
0.095 0.035 0.0
0 0.04 0.0
0.005 0.04 0.0
0.01 0.04 0.0
0.015 0.04 0.0
0.02 0.04 0.0
0.025 0.04 0.0
0.03 0.04 0.0
0.035 0.04 0.0
0.04 0.04 0.0
0.045 0.04 0.0
0.05 0.04 0.0
0.055 0.04 0.0
0.06 0.04 0.0
0.065 0.04 0.0
0.07 0.04 0.0
0.075 0.04 0.0
0.08 0.04 0.0
0.085 0.04 0.0
0.09 0.04 0.0
0.095 0.04 0.0
0 0.045 0.0
0.005 0.045 0.0
0.01 0.045 0.0
0.015 0.045 0.0
0.02 0.045 0.0
0.025 0.045 0.0
0.03 0.045 0.0
0.035 0.045 0.0
0.04 0.045 0.0
0.045 0.045 0.0
0.05 0.045 0.0
0.055 0.045 0.0
0.06 0.045 0.0
0.065 0.045 0.0
0.07 0.045 0.0
0.075 0.045 0.0
0.08 0.045 0.0
0.085 0.045 0.0
0.09 0.045 0.0
0.095 0.045 0.0
0 0.05 0.0
0.005 0.05 0.0
0.01 0.05 0.0
0.015 0.05 0.0
0.02 0.05 0.0
0.025 0.05 0.0
0.03 0.05 0.0
0.035 0.05 0.0
0.04 0.05 0.0
0.045 0.05 0.0
0.05 0.05 0.0
0.055 0.05 0.0
0.06 0.05 0.0
0.065 0.05 0.0
0.07 0.05 0.0
0.075 0.05 0.0
0.08 0.05 0.0
0.085 0.05 0.0
0.09 0.05 0.0
0.095 0.05 0.0
0 0.055 0.0
0.005 0.055 0.0
0.01 0.055 0.0
0.015 0.055 0.0
0.02 0.055 0.0
0.025 0.055 0.0
0.03 0.055 0.0
0.035 0.055 0.0
0.04 0.055 0.0
0.045 0.055 0.0
0.05 0.055 0.0
0.055 0.055 0.0
0.06 0.055 0.0
0.065 0.055 0.0
0.07 0.055 0.0
0.075 0.055 0.0
0.08 0.055 0.0
0.085 0.055 0.0
0.09 0.055 0.0
0.095 0.055 0.0
0 0.06 0.0
0.005 0.06 0.0
0.01 0.06 0.0
0.015 0.06 0.0
0.02 0.06 0.0
0.025 0.06 0.0
0.03 0.06 0.0
0.035 0.06 0.0
0.04 0.06 0.0
0.045 0.06 0.0
0.05 0.06 0.0
0.055 0.06 0.0
0.06 0.06 0.0
0.065 0.06 0.0
0.07 0.06 0.0
0.075 0.06 0.0
0.08 0.06 0.0
0.085 0.06 0.0
0.09 0.06 0.0
0.095 0.06 0.0
0 0.065 0.0
0.005 0.065 0.0
0.01 0.065 0.0
0.015 0.065 0.0
0.02 0.065 0.0
0.025 0.065 0.0
0.03 0.065 0.0
0.035 0.065 0.0
0.04 0.065 0.0
0.045 0.065 0.0
0.05 0.065 0.0
0.055 0.065 0.0
0.06 0.065 0.0
0.065 0.065 0.0
0.07 0.065 0.0
0.075 0.065 0.0
0.08 0.065 0.0
0.085 0.065 0.0
0.09 0.065 0.0
0.095 0.065 0.0
0 0.07 0.0
0.005 0.07 0.0
0.01 0.07 0.0
0.015 0.07 0.0
0.02 0.07 0.0
0.025 0.07 0.0
0.03 0.07 0.0
0.035 0.07 0.0
0.04 0.07 0.0
0.045 0.07 0.0
0.05 0.07 0.0
0.055 0.07 0.0
0.06 0.07 0.0
0.065 0.07 0.0
0.07 0.07 0.0
0.075 0.07 0.0
0.08 0.07 0.0
0.085 0.07 0.0
0.09 0.07 0.0
0.095 0.07 0.0
0 0.075 0.0
0.005 0.075 0.0
0.01 0.075 0.0
0.015 0.075 0.0
0.02 0.075 0.0
0.025 0.075 0.0
0.03 0.075 0.0
0.035 0.075 0.0
0.04 0.075 0.0
0.045 0.075 0.0
0.05 0.075 0.0
0.055 0.075 0.0
0.06 0.075 0.0
0.065 0.075 0.0
0.07 0.075 0.0
0.075 0.075 0.0
0.08 0.075 0.0
0.085 0.075 0.0
0.09 0.075 0.0
0.095 0.075 0.0
0 0.08 0.0
0.005 0.08 0.0
0.01 0.08 0.0
0.015 0.08 0.0
0.02 0.08 0.0
0.025 0.08 0.0
0.03 0.08 0.0
0.035 0.08 0.0
0.04 0.08 0.0
0.045 0.08 0.0
0.05 0.08 0.0
0.055 0.08 0.0
0.06 0.08 0.0
0.065 0.08 0.0
0.07 0.08 0.0
0.075 0.08 0.0
0.08 0.08 0.0
0.085 0.08 0.0
0.09 0.08 0.0
0.095 0.08 0.0
0 0.085 0.0
0.005 0.085 0.0
0.01 0.085 0.0
0.015 0.085 0.0
0.02 0.085 0.0
0.025 0.085 0.0
0.03 0.085 0.0
0.035 0.085 0.0
0.04 0.085 0.0
0.045 0.085 0.0
0.05 0.085 0.0
0.055 0.085 0.0
0.06 0.085 0.0
0.065 0.085 0.0
0.07 0.085 0.0
0.075 0.085 0.0
0.08 0.085 0.0
0.085 0.085 0.0
0.09 0.085 0.0
0.095 0.085 0.0
0 0.09 0.0
0.005 0.09 0.0
0.01 0.09 0.0
0.015 0.09 0.0
0.02 0.09 0.0
0.025 0.09 0.0
0.03 0.09 0.0
0.035 0.09 0.0
0.04 0.09 0.0
0.045 0.09 0.0
0.05 0.09 0.0
0.055 0.09 0.0
0.06 0.09 0.0
0.065 0.09 0.0
0.07 0.09 0.0
0.075 0.09 0.0
0.08 0.09 0.0
0.085 0.09 0.0
0.09 0.09 0.0
0.095 0.09 0.0
0 0.095 0.0
0.005 0.095 0.0
0.01 0.095 0.0
0.015 0.095 0.0
0.02 0.095 0.0
0.025 0.095 0.0
0.03 0.095 0.0
0.035 0.095 0.0
0.04 0.095 0.0
0.045 0.095 0.0
0.05 0.095 0.0
0.055 0.095 0.0
0.06 0.095 0.0
0.065 0.095 0.0
0.07 0.095 0.0
0.075 0.095 0.0
0.08 0.095 0.0
0.085 0.095 0.0
0.09 0.095 0.0
0.095 0.095 0.0
POINT_DATA 400
VECTORS velocity float
0 0.5 0.0
0 0 0.0
0 0 0.0
0 0 0.0
0 0 0.0
0 0 0.0
0 0 0.0
0 0 0.0
0 0 0.0
0 0 0.0
0 0 0.0
0 0 0.0
0 0 0.0
0 0 0.0
0 0 0.0
0 0 0.0
0 0 0.0
0 0 0.0
0 0 0.0
0 0 0.0
0 1 0.0
0.0918354 0.542927 0.0
0.0158453 0.349862 0.0
-0.0278008 0.240604 0.0
-0.0473687 0.167928 0.0
-0.0542633 0.115504 0.0
-0.0546796 0.0760651 0.0
-0.0516944 0.0457497 0.0
-0.0468956 0.0222608 0.0
-0.0411665 0.00412142 0.0
-0.0350382 -0.00967459 0.0
-0.0288504 -0.0198421 0.0
-0.0228318 -0.0269007 0.0
-0.0171453 -0.0312263 0.0
-0.0119213 -0.0330766 0.0
-0.0072886 -0.0325962 0.0
-0.0034117 -0.0297913 0.0
-0.000538653 -0.0244129 0.0
0.000966824 -0.0154759 0.0
0 0 0.0
0 1 0.0
0.0863699 0.618917 0.0
0.0276717 0.393508 0.0
-0.0250972 0.260172 0.0
-0.0581157 0.174822 0.0
-0.0747501 0.11592 0.0
-0.0804128 0.07308 0.0
-0.0792124 0.0409509 0.0
-0.0738635 0.0165317 0.0
-0.0661184 -0.00200691 0.0
-0.0571224 -0.0158624 0.0
-0.0476404 -0.0258607 0.0
-0.038196 -0.0325872 0.0
-0.029161 -0.0364503 0.0
-0.0208214 -0.0377093 0.0
-0.0134318 -0.0364731 0.0
-0.00726361 -0.0326644 0.0
-0.00263494 -0.0259184 0.0
0.000136939 -0.0153906 0.0
0 0 0.0
0 1 0.0
0.0642821 0.677615 0.0
0.0250883 0.446277 0.0
-0.0205256 0.293191 0.0
-0.0557692 0.191457 0.0
-0.0774203 0.121583 0.0
-0.0875355 0.0718795 0.0
-0.0892218 0.035602 0.0
-0.0852193 0.00878663 0.0
-0.0776248 -0.0110029 0.0
-0.067962 -0.0253444 0.0
-0.0573159 -0.0353052 0.0
-0.0464545 -0.0416222 0.0
-0.0359273 -0.0447899 0.0
-0.0261434 -0.0450989 0.0
-0.0174343 -0.0426413 0.0
-0.0101011 -0.0372931 0.0
-0.00443192 -0.0286903 0.0
-0.000660434 -0.0162902 0.0
0 0 0.0
0 1 0.0
0.0420616 0.716809 0.0
0.0160464 0.491891 0.0
-0.0191398 0.328434 0.0
-0.0503253 0.213108 0.0
-0.0720981 0.131698 0.0
-0.0840027 0.0735659 0.0
-0.0876741 0.0315995 0.0
-0.0852469 0.00119216 0.0
-0.0786876 -0.0206657 0.0
-0.069592 -0.0359905 0.0
-0.059176 -0.0461666 0.0
-0.0483333 -0.0521493 0.0
-0.0377093 -0.0545738 0.0
-0.0277722 -0.053808 0.0
-0.0188742 -0.0499745 0.0
-0.0112974 -0.0429622 0.0
-0.00527993 -0.0324618 0.0
-0.00102241 -0.0181057 0.0
0 0 0.0
0 1 0.0
0.0225426 0.742824 0.0
0.00524386 0.527077 0.0
-0.0202765 0.35962 0.0
-0.0449584 0.234881 0.0
-0.0636518 0.143603 0.0
-0.0747893 0.0772373 0.0
-0.07891 0.0291723 0.0
-0.0774412 -0.00536714 0.0
-0.0719851 -0.0297613 0.0
-0.0639851 -0.0464065 0.0
-0.0546096 -0.0570093 0.0
-0.0447445 -0.0627733 0.0
-0.0350332 -0.0645109 0.0
-0.02593 -0.062706 0.0
-0.0177545 -0.0575513 0.0
-0.010738 -0.0489797 0.0
-0.00506311 -0.0367193 0.0
-0.000910321 -0.0204128 0.0
0 0 0.0
0 1 0.0
0.00560205 0.760123 0.0
-0.00550243 0.552598 0.0
-0.02273 0.384302 0.0
-0.0402602 0.253574 0.0
-0.0541103 0.15474 0.0
-0.0625924 0.081358 0.0
-0.065696 0.0277035 0.0
-0.0643082 -0.0108232 0.0
-0.0596296 -0.0377613 0.0
-0.0528359 -0.0557821 0.0
-0.0449198 -0.0668743 0.0
-0.0366461 -0.0724847 0.0
-0.0285641 -0.0736141 0.0
-0.0210459 -0.0708815 0.0
-0.0143306 -0.0645678 0.0
-0.00856999 -0.0546546 0.0
-0.00387528 -0.0408721 0.0
-0.000381034 -0.0227694 0.0
0 0 0.0
0 1 0.0
-0.00947628 0.771227 0.0
-0.0157215 0.569825 0.0
-0.0257032 0.401832 0.0
-0.0360298 0.267424 0.0
-0.0441027 0.163222 0.0
-0.0486644 0.0844617 0.0
-0.0495975 0.0263156 0.0
-0.0474747 -0.0155017 0.0
-0.0431518 -0.044555 0.0
-0.0374963 -0.0636982 0.0
-0.0312464 -0.0751481 0.0
-0.0249605 -0.0805666 0.0
-0.0190199 -0.0811323 0.0
-0.0136561 -0.0775968 0.0
-0.00898762 -0.0703284 0.0
-0.00505902 -0.0593493 0.0
-0.00188585 -0.0443663 0.0
0.000484653 -0.0247957 0.0
0 0 0.0
0 1 0.0
-0.0234753 0.777472 0.0
-0.0254815 0.579807 0.0
-0.0287655 0.412159 0.0
-0.0318746 0.275497 0.0
-0.033608 0.167784 0.0
-0.0334196 0.0853948 0.0
-0.0313737 0.0241928 0.0
-0.0279109 -0.0198247 0.0
-0.0236089 -0.0502105 0.0
-0.0190168 -0.0699481 0.0
-0.0145679 -0.0814339 0.0
-0.0105534 -0.0865072 0.0
-0.00713105 -0.0864961 0.0
-0.00434888 -0.0822653 0.0
-0.00217412 -0.074257 0.0
-0.000522377 -0.0625224 0.0
0.000709699 -0.0467368 0.0
0.00160058 -0.0261898 0.0
0 0 0.0
0 1 0.0
-0.0371525 0.779479 0.0
-0.0350467 0.583091 0.0
-0.0316786 0.415268 0.0
-0.027354 0.27723 0.0
-0.0222911 0.167596 0.0
-0.016804 0.0833489 0.0
-0.0112944 0.0207299 0.0
-0.00616622 -0.0241266 0.0
-0.00174809 -0.0548027 0.0
0.00174896 -0.0743971 0.0
0.00423763 -0.0854484 0.0
0.00573843 -0.0899296 0.0
0.00635477 -0.0892783 0.0
0.00624842 -0.0844401 0.0
0.00561975 -0.0759088 0.0
0.00469292 -0.0637545 0.0
0.00370286 -0.0476277 0.0
0.00287791 -0.0267271 0.0
0 0 0.0
0 1 0.0
-0.0512613 0.777373 0.0
-0.0447403 0.579723 0.0
-0.0342497 0.410943 0.0
-0.0219651 0.272167 0.0
-0.00963392 0.162109 0.0
0.00148485 0.0778392 0.0
0.0106165 0.0156018 0.0
0.0174037 -0.0285447 0.0
0.021807 -0.0582997 0.0
0.0240022 -0.0768858 0.0
0.0242925 -0.0869492 0.0
0.0230428 -0.0905459 0.0
0.0206366 -0.0891719 0.0
0.0174526 -0.0838114 0.0
0.0138571 -0.0749819 0.0
0.0102087 -0.0627645 0.0
0.00686988 -0.0468027 0.0
0.00422271 -0.0262598 0.0
0 0 0.0
0 1 0.0
-0.0666136 0.770852 0.0
-0.0548838 0.569232 0.0
-0.036208 0.398659 0.0
-0.015075 0.259836 0.0
0.00501468 0.15099 0.0
0.0218419 0.0687076 0.0
0.0343636 0.00881459 0.0
0.042409 -0.032948 0.0
0.0463496 -0.0604949 0.0
0.0468322 -0.0771761 0.0
0.0445969 -0.0856995 0.0
0.0403691 -0.0881397 0.0
0.0348084 -0.0859879 0.0
0.0284945 -0.0802159 0.0
0.0219375 -0.0713335 0.0
0.0156054 -0.0594256 0.0
0.00996489 -0.0441556 0.0
0.00553267 -0.0247191 0.0
0 0 0.0
0 1 0.0
-0.0841762 0.759122 0.0
-0.0657423 0.550557 0.0
-0.0370604 0.377526 0.0
-0.00583233 0.239746 0.0
0.0223904 0.134163 0.0
0.0445766 0.0561858 0.0
0.0597309 0.000769214 0.0
0.0681639 -0.0368886 0.0
0.0708583 -0.0609776 0.0
0.0690345 -0.0749407 0.0
0.0638989 -0.0814717 0.0
0.0565238 -0.082579 0.0
0.0478091 -0.079674 0.0
0.0384921 -0.0736589 0.0
0.0291822 -0.0650015 0.0
0.0204139 -0.0537851 0.0
0.0127151 -0.0397234 0.0
0.00669519 -0.0221218 0.0
0 0 0.0
0 1 0.0
-0.105221 0.740688 0.0
-0.0774038 0.521875 0.0
-0.0358727 0.346298 0.0
0.00690913 0.211524 0.0
0.0431715 0.111977 0.0
0.0696145 0.0410316 0.0
0.0859273 -0.00766374 0.0
0.093358 -0.039583 0.0
0.0937361 -0.0591538 0.0
0.0889272 -0.0698052 0.0
0.0805806 -0.0740965 0.0
0.0700488 -0.0738644 0.0
0.0583954 -0.070357 0.0
0.0464424 -0.064349 0.0
0.0348355 -0.0562332 0.0
0.0241181 -0.0460863 0.0
0.0148227 -0.0337035 0.0
0.00758867 -0.0185808 0.0
0 0 0.0
0 1 0.0
-0.131562 0.712871 0.0
-0.0894401 0.480343 0.0
-0.0309118 0.303516 0.0
0.0245506 0.175261 0.0
0.0675712 0.0855336 0.0
0.0959363 0.0247187 0.0
0.111057 -0.0150944 0.0
0.115648 -0.0399612 0.0
0.11254 -0.0543449 0.0
0.1042 -0.0614585 0.0
0.0925919 -0.0635647 0.0
0.0792108 -0.0622109 0.0
0.0651609 -0.058404 0.0
0.0512528 -0.0527421 0.0
0.038094 -0.0455158 0.0
0.0261773 -0.0367909 0.0
0.0159779 -0.0264695 0.0
0.00808851 -0.0143139 0.0
0 0 0.0
0 1 0.0
-0.165893 0.67075 0.0
-0.0999441 0.421815 0.0
-0.0191715 0.248053 0.0
0.0482394 0.132241 0.0
0.0943267 0.0571685 0.0
0.12058 0.0095978 0.0
0.131381 -0.0196849 0.0
0.131211 -0.0368538 0.0
0.123772 -0.0460042 0.0
0.111857 -0.0498507 0.0
0.0974857 -0.0501836 0.0
0.0820786 -0.0481611 0.0
0.066627 -0.0444959 0.0
0.0518248 -0.0395833 0.0
0.0381747 -0.0335991 0.0
0.0260713 -0.0265915 0.0
0.0158841 -0.0185801 0.0
0.00807844 -0.00964959 0.0
0 0 0.0
0 1 0.0
-0.211733 0.604801 0.0
-0.102979 0.341043 0.0
0.00360779 0.180642 0.0
0.0769079 0.0861535 0.0
0.118528 0.0309151 0.0
0.137093 -0.00120271 0.0
0.140481 -0.0195157 0.0
0.134438 -0.0294145 0.0
0.122871 -0.0340896 0.0
0.108364 -0.0354789 0.0
0.0926124 -0.0347766 0.0
0.0767223 -0.0327094 0.0
0.0614226 -0.0296937 0.0
0.0472067 -0.0259331 0.0
0.0344304 -0.0214957 0.0
0.0233762 -0.0164043 0.0
0.0142946 -0.0107744 0.0
0.00746399 -0.00502278 0.0
0 0 0.0
0 1 0.0
-0.268809 0.496048 0.0
-0.0833923 0.234455 0.0
0.0392006 0.107342 0.0
0.101682 0.0445336 0.0
0.127814 0.0123495 0.0
0.133778 -0.00459023 0.0
0.128822 -0.0134731 0.0
0.118123 -0.0178472 0.0
0.104636 -0.0195829 0.0
0.0900917 -0.019727 0.0
0.0755208 -0.0188865 0.0
0.0615465 -0.0174097 0.0
0.0485566 -0.0154778 0.0
0.0368126 -0.0131569 0.0
0.0265216 -0.0104415 0.0
0.0178758 -0.00732269 0.0
0.0110537 -0.00394384 0.0
0.0061671 -0.00095878 0.0
0 0 0.0
0 1 0.0
-0.295122 0.310631 0.0
-0.0189284 0.111863 0.0
0.0679116 0.0448608 0.0
0.0941022 0.018402 0.0
0.0981913 0.00638472 0.0
0.0933543 0.000366149 0.0
0.0847517 -0.00277357 0.0
0.0746804 -0.00436052 0.0
0.064272 -0.00503874 0.0
0.0541206 -0.00515613 0.0
0.0445464 -0.00491214 0.0
0.0357227 -0.00441978 0.0
0.0277488 -0.00373389 0.0
0.0206983 -0.00286581 0.0
0.0146568 -0.00179574 0.0
0.0097503 -0.000500552 0.0
0.00615099 0.00094277 0.0
0.00398715 0.00193621 0.0
0 0 0.0
0 0.5 0.0
0 0 0.0
0 0 0.0
0 0 0.0
0 0 0.0
0 0 0.0
0 0 0.0
0 0 0.0
0 0 0.0
0 0 0.0
0 0 0.0
0 0 0.0
0 0 0.0
0 0 0.0
0 0 0.0
0 0 0.0
0 0 0.0
0 0 0.0
0 0 0.0
0 0 0.0
SCALARS pressure float 1
LOOKUP_TABLE default
0
0
0
0
0
0
0
0
0
0
0
0
0
0
0
0
0
0
0
0
0
-0.565117
-0.514109
-0.401919
-0.297828
-0.212152
-0.143561
-0.089044
-0.0459228
-0.0121128
0.0139625
0.033497
0.0473994
0.0563638
0.060922
0.0614973
0.0585013
0.0526149
0.044078
0
0
-0.313222
-0.331109
-0.290216
-0.231738
-0.173247
-0.120908
-0.0762954
-0.039307
-0.00930462
0.0144611
0.0327017
0.0460471
0.0550433
0.0601717
0.0618962
0.0607605
0.0575947
0.0518243
0
0
-0.189223
-0.210527
-0.198149
-0.167355
-0.129746
-0.0919152
-0.057095
-0.0266509
-0.000991374
0.0199399
0.0364113
0.0487767
0.0574175
0.0627237
0.0651066
0.0650393
0.0631161
0.0577524
0
0
-0.113037
-0.128262
-0.125993
-0.11019
-0.0866638
-0.0601697
-0.0338671
-0.00960811
0.0116494
0.029509
0.0439076
0.0549709
0.0629273
0.0680593
0.0706826
0.0711362
0.0697604
0.0642376
0
0
-0.0586206
-0.0678825
-0.0685295
-0.060416
-0.0458323
-0.0276249
-0.00824243
0.0105482
0.0276259
0.0423731
0.0545269
0.0640554
0.0710668
0.0757474
0.0783178
0.0789969
0.0779514
0.0723128
0
0
-0.0155395
-0.0198546
-0.0205996
-0.0162652
-0.00725124
0.00502499
0.0189153
0.0329886
0.0461974
0.0578795
0.0676892
0.0755091
0.0813711
0.0853915
0.0877204
0.088496
0.0877933
0.0822635
0
0
0.0214445
0.0215013
0.0218532
0.0244566
0.0299347
0.0378656
0.047312
0.0572572
0.0668534
0.0755108
0.0828899
0.0888508
0.0933907
0.0965872
0.0985497
0.0993761
0.0991104
0.0939353
0
0
0.0555882
0.0599253
0.061968
0.0638765
0.0669171
0.0714033
0.0770119
0.0831548
0.0892472
0.0948427
0.0996699
0.103612
0.106665
0.108893
0.11039
0.111246
0.111512
0.106897
0
0
0.0893565
0.0982671
0.102349
0.103987
0.104999
0.106341
0.108264
0.110617
0.113111
0.115486
0.117573
0.119305
0.120695
0.121812
0.122746
0.123597
0.124449
0.120531
0
0
0.124998
0.139105
0.145418
0.146725
0.145512
0.143438
0.141362
0.139593
0.138164
0.137015
0.136094
0.135387
0.134928
0.134783
0.135046
0.135829
0.137256
0.134097
0
0
0.164961
0.185214
0.193728
0.194084
0.189779
0.183395
0.176503
0.169921
0.164008
0.158897
0.154633
0.151236
0.148736
0.147185
0.146661
0.147279
0.1492
0.146772
0
0
0.212379
0.240059
0.250266
0.248197
0.239044
0.226704
0.213633
0.201186
0.190022
0.180413
0.172443
0.166117
0.161418
0.158343
0.156925
0.157259
0.159524
0.157708
0
0
0.271864
0.308502
0.318792
0.311344
0.294288
0.273418
0.252224
0.232554
0.215246
0.200591
0.188605
0.179189
0.172212
0.167563
0.165185
0.165113
0.167512
0.166088
0
0
0.351166
0.397985
0.404139
0.385703
0.355813
0.322754
0.290989
0.262583
0.23828
0.218163
0.202014
0.189511
0.180326
0.174173
0.170851
0.17028
0.172561
0.171211
0
0
0.465202
0.520569
0.512202
0.472542
0.422402
0.372505
0.327534
0.289067
0.257237
0.231578
0.211425
0.196102
0.184996
0.177586
0.173466
0.172376
0.174275
0.172582
0
0
0.647487
0.69602
0.648447
0.570082
0.489849
0.41827
0.358065
0.308983
0.269797
0.239091
0.215544
0.198016
0.185552
0.177358
0.172779
0.171293
0.172583
0.169999
0
0
0.988023
0.952858
0.811237
0.668862
0.548867
0.452818
0.377375
0.318689
0.27344
0.238965
0.213178
0.194447
0.181483
0.173237
0.168797
0.167298
0.167899
0.163605
0
0
1.72187
1.25112
0.933511
0.715643
0.561086
0.448435
0.364887
0.302395
0.255631
0.220905
0.195577
0.177707
0.165831
0.158786
0.155537
0.154938
0.155331
0.148084
0
0
0
0
0
0
0
0
0
0
0
0
0
0
0
0
0
0
0
0
0
