# vtk DataFile Version 2.0
Lid Driven Cavity Flow
ASCII
DATASET STRUCTURED_GRID
DIMENSIONS 101 101 1
POINTS 10201 float
0.0000000 0.0000000 0.0
0.0100000 0.0000000 0.0
0.0200000 0.0000000 0.0
0.0300000 0.0000000 0.0
0.0400000 0.0000000 0.0
0.0500000 0.0000000 0.0
0.0600000 0.0000000 0.0
0.0700000 0.0000000 0.0
0.0800000 0.0000000 0.0
0.0900000 0.0000000 0.0
0.1000000 0.0000000 0.0
0.1100000 0.0000000 0.0
0.1200000 0.0000000 0.0
0.1300000 0.0000000 0.0
0.1400000 0.0000000 0.0
0.1500000 0.0000000 0.0
0.1600000 0.0000000 0.0
0.1700000 0.0000000 0.0
0.1800000 0.0000000 0.0
0.1900000 0.0000000 0.0
0.2000000 0.0000000 0.0
0.2100000 0.0000000 0.0
0.2200000 0.0000000 0.0
0.2300000 0.0000000 0.0
0.2400000 0.0000000 0.0
0.2500000 0.0000000 0.0
0.2600000 0.0000000 0.0
0.2700000 0.0000000 0.0
0.2800000 0.0000000 0.0
0.2900000 0.0000000 0.0
0.3000000 0.0000000 0.0
0.3100000 0.0000000 0.0
0.3200000 0.0000000 0.0
0.3300000 0.0000000 0.0
0.3400000 0.0000000 0.0
0.3500000 0.0000000 0.0
0.3600000 0.0000000 0.0
0.3700000 0.0000000 0.0
0.3800000 0.0000000 0.0
0.3900000 0.0000000 0.0
0.4000000 0.0000000 0.0
0.4100000 0.0000000 0.0
0.4200000 0.0000000 0.0
0.4300000 0.0000000 0.0
0.4400000 0.0000000 0.0
0.4500000 0.0000000 0.0
0.4600000 0.0000000 0.0
0.4700000 0.0000000 0.0
0.4800000 0.0000000 0.0
0.4900000 0.0000000 0.0
0.5000000 0.0000000 0.0
0.5100000 0.0000000 0.0
0.5200000 0.0000000 0.0
0.5300000 0.0000000 0.0
0.5400000 0.0000000 0.0
0.5500000 0.0000000 0.0
0.5600000 0.0000000 0.0
0.5700000 0.0000000 0.0
0.5800000 0.0000000 0.0
0.5900000 0.0000000 0.0
0.6000000 0.0000000 0.0
0.6100000 0.0000000 0.0
0.6200000 0.0000000 0.0
0.6300000 0.0000000 0.0
0.6400000 0.0000000 0.0
0.6500000 0.0000000 0.0
0.6600000 0.0000000 0.0
0.6700000 0.0000000 0.0
0.6800000 0.0000000 0.0
0.6900000 0.0000000 0.0
0.7000000 0.0000000 0.0
0.7100000 0.0000000 0.0
0.7200000 0.0000000 0.0
0.7300000 0.0000000 0.0
0.7400000 0.0000000 0.0
0.7500000 0.0000000 0.0
0.7600000 0.0000000 0.0
0.7700000 0.0000000 0.0
0.7800000 0.0000000 0.0
0.7900000 0.0000000 0.0
0.8000000 0.0000000 0.0
0.8100000 0.0000000 0.0
0.8200000 0.0000000 0.0
0.8300000 0.0000000 0.0
0.8400000 0.0000000 0.0
0.8500000 0.0000000 0.0
0.8600000 0.0000000 0.0
0.8700000 0.0000000 0.0
0.8800000 0.0000000 0.0
0.8900000 0.0000000 0.0
0.9000000 0.0000000 0.0
0.9100000 0.0000000 0.0
0.9200000 0.0000000 0.0
0.9300000 0.0000000 0.0
0.9400000 0.0000000 0.0
0.9500000 0.0000000 0.0
0.9600000 0.0000000 0.0
0.9700000 0.0000000 0.0
0.9800000 0.0000000 0.0
0.9900000 0.0000000 0.0
1.0000000 0.0000000 0.0
0.0000000 0.0100000 0.0
0.0100000 0.0100000 0.0
0.0200000 0.0100000 0.0
0.0300000 0.0100000 0.0
0.0400000 0.0100000 0.0
0.0500000 0.0100000 0.0
0.0600000 0.0100000 0.0
0.0700000 0.0100000 0.0
0.0800000 0.0100000 0.0
0.0900000 0.0100000 0.0
0.1000000 0.0100000 0.0
0.1100000 0.0100000 0.0
0.1200000 0.0100000 0.0
0.1300000 0.0100000 0.0
0.1400000 0.0100000 0.0
0.1500000 0.0100000 0.0
0.1600000 0.0100000 0.0
0.1700000 0.0100000 0.0
0.1800000 0.0100000 0.0
0.1900000 0.0100000 0.0
0.2000000 0.0100000 0.0
0.2100000 0.0100000 0.0
0.2200000 0.0100000 0.0
0.2300000 0.0100000 0.0
0.2400000 0.0100000 0.0
0.2500000 0.0100000 0.0
0.2600000 0.0100000 0.0
0.2700000 0.0100000 0.0
0.2800000 0.0100000 0.0
0.2900000 0.0100000 0.0
0.3000000 0.0100000 0.0
0.3100000 0.0100000 0.0
0.3200000 0.0100000 0.0
0.3300000 0.0100000 0.0
0.3400000 0.0100000 0.0
0.3500000 0.0100000 0.0
0.3600000 0.0100000 0.0
0.3700000 0.0100000 0.0
0.3800000 0.0100000 0.0
0.3900000 0.0100000 0.0
0.4000000 0.0100000 0.0
0.4100000 0.0100000 0.0
0.4200000 0.0100000 0.0
0.4300000 0.0100000 0.0
0.4400000 0.0100000 0.0
0.4500000 0.0100000 0.0
0.4600000 0.0100000 0.0
0.4700000 0.0100000 0.0
0.4800000 0.0100000 0.0
0.4900000 0.0100000 0.0
0.5000000 0.0100000 0.0
0.5100000 0.0100000 0.0
0.5200000 0.0100000 0.0
0.5300000 0.0100000 0.0
0.5400000 0.0100000 0.0
0.5500000 0.0100000 0.0
0.5600000 0.0100000 0.0
0.5700000 0.0100000 0.0
0.5800000 0.0100000 0.0
0.5900000 0.0100000 0.0
0.6000000 0.0100000 0.0
0.6100000 0.0100000 0.0
0.6200000 0.0100000 0.0
0.6300000 0.0100000 0.0
0.6400000 0.0100000 0.0
0.6500000 0.0100000 0.0
0.6600000 0.0100000 0.0
0.6700000 0.0100000 0.0
0.6800000 0.0100000 0.0
0.6900000 0.0100000 0.0
0.7000000 0.0100000 0.0
0.7100000 0.0100000 0.0
0.7200000 0.0100000 0.0
0.7300000 0.0100000 0.0
0.7400000 0.0100000 0.0
0.7500000 0.0100000 0.0
0.7600000 0.0100000 0.0
0.7700000 0.0100000 0.0
0.7800000 0.0100000 0.0
0.7900000 0.0100000 0.0
0.8000000 0.0100000 0.0
0.8100000 0.0100000 0.0
0.8200000 0.0100000 0.0
0.8300000 0.0100000 0.0
0.8400000 0.0100000 0.0
0.8500000 0.0100000 0.0
0.8600000 0.0100000 0.0
0.8700000 0.0100000 0.0
0.8800000 0.0100000 0.0
0.8900000 0.0100000 0.0
0.9000000 0.0100000 0.0
0.9100000 0.0100000 0.0
0.9200000 0.0100000 0.0
0.9300000 0.0100000 0.0
0.9400000 0.0100000 0.0
0.9500000 0.0100000 0.0
0.9600000 0.0100000 0.0
0.9700000 0.0100000 0.0
0.9800000 0.0100000 0.0
0.9900000 0.0100000 0.0
1.0000000 0.0100000 0.0
0.0000000 0.0200000 0.0
0.0100000 0.0200000 0.0
0.0200000 0.0200000 0.0
0.0300000 0.0200000 0.0
0.0400000 0.0200000 0.0
0.0500000 0.0200000 0.0
0.0600000 0.0200000 0.0
0.0700000 0.0200000 0.0
0.0800000 0.0200000 0.0
0.0900000 0.0200000 0.0
0.1000000 0.0200000 0.0
0.1100000 0.0200000 0.0
0.1200000 0.0200000 0.0
0.1300000 0.0200000 0.0
0.1400000 0.0200000 0.0
0.1500000 0.0200000 0.0
0.1600000 0.0200000 0.0
0.1700000 0.0200000 0.0
0.1800000 0.0200000 0.0
0.1900000 0.0200000 0.0
0.2000000 0.0200000 0.0
0.2100000 0.0200000 0.0
0.2200000 0.0200000 0.0
0.2300000 0.0200000 0.0
0.2400000 0.0200000 0.0
0.2500000 0.0200000 0.0
0.2600000 0.0200000 0.0
0.2700000 0.0200000 0.0
0.2800000 0.0200000 0.0
0.2900000 0.0200000 0.0
0.3000000 0.0200000 0.0
0.3100000 0.0200000 0.0
0.3200000 0.0200000 0.0
0.3300000 0.0200000 0.0
0.3400000 0.0200000 0.0
0.3500000 0.0200000 0.0
0.3600000 0.0200000 0.0
0.3700000 0.0200000 0.0
0.3800000 0.0200000 0.0
0.3900000 0.0200000 0.0
0.4000000 0.0200000 0.0
0.4100000 0.0200000 0.0
0.4200000 0.0200000 0.0
0.4300000 0.0200000 0.0
0.4400000 0.0200000 0.0
0.4500000 0.0200000 0.0
0.4600000 0.0200000 0.0
0.4700000 0.0200000 0.0
0.4800000 0.0200000 0.0
0.4900000 0.0200000 0.0
0.5000000 0.0200000 0.0
0.5100000 0.0200000 0.0
0.5200000 0.0200000 0.0
0.5300000 0.0200000 0.0
0.5400000 0.0200000 0.0
0.5500000 0.0200000 0.0
0.5600000 0.0200000 0.0
0.5700000 0.0200000 0.0
0.5800000 0.0200000 0.0
0.5900000 0.0200000 0.0
0.6000000 0.0200000 0.0
0.6100000 0.0200000 0.0
0.6200000 0.0200000 0.0
0.6300000 0.0200000 0.0
0.6400000 0.0200000 0.0
0.6500000 0.0200000 0.0
0.6600000 0.0200000 0.0
0.6700000 0.0200000 0.0
0.6800000 0.0200000 0.0
0.6900000 0.0200000 0.0
0.7000000 0.0200000 0.0
0.7100000 0.0200000 0.0
0.7200000 0.0200000 0.0
0.7300000 0.0200000 0.0
0.7400000 0.0200000 0.0
0.7500000 0.0200000 0.0
0.7600000 0.0200000 0.0
0.7700000 0.0200000 0.0
0.7800000 0.0200000 0.0
0.7900000 0.0200000 0.0
0.8000000 0.0200000 0.0
0.8100000 0.0200000 0.0
0.8200000 0.0200000 0.0
0.8300000 0.0200000 0.0
0.8400000 0.0200000 0.0
0.8500000 0.0200000 0.0
0.8600000 0.0200000 0.0
0.8700000 0.0200000 0.0
0.8800000 0.0200000 0.0
0.8900000 0.0200000 0.0
0.9000000 0.0200000 0.0
0.9100000 0.0200000 0.0
0.9200000 0.0200000 0.0
0.9300000 0.0200000 0.0
0.9400000 0.0200000 0.0
0.9500000 0.0200000 0.0
0.9600000 0.0200000 0.0
0.9700000 0.0200000 0.0
0.9800000 0.0200000 0.0
0.9900000 0.0200000 0.0
1.0000000 0.0200000 0.0
0.0000000 0.0300000 0.0
0.0100000 0.0300000 0.0
0.0200000 0.0300000 0.0
0.0300000 0.0300000 0.0
0.0400000 0.0300000 0.0
0.0500000 0.0300000 0.0
0.0600000 0.0300000 0.0
0.0700000 0.0300000 0.0
0.0800000 0.0300000 0.0
0.0900000 0.0300000 0.0
0.1000000 0.0300000 0.0
0.1100000 0.0300000 0.0
0.1200000 0.0300000 0.0
0.1300000 0.0300000 0.0
0.1400000 0.0300000 0.0
0.1500000 0.0300000 0.0
0.1600000 0.0300000 0.0
0.1700000 0.0300000 0.0
0.1800000 0.0300000 0.0
0.1900000 0.0300000 0.0
0.2000000 0.0300000 0.0
0.2100000 0.0300000 0.0
0.2200000 0.0300000 0.0
0.2300000 0.0300000 0.0
0.2400000 0.0300000 0.0
0.2500000 0.0300000 0.0
0.2600000 0.0300000 0.0
0.2700000 0.0300000 0.0
0.2800000 0.0300000 0.0
0.2900000 0.0300000 0.0
0.3000000 0.0300000 0.0
0.3100000 0.0300000 0.0
0.3200000 0.0300000 0.0
0.3300000 0.0300000 0.0
0.3400000 0.0300000 0.0
0.3500000 0.0300000 0.0
0.3600000 0.0300000 0.0
0.3700000 0.0300000 0.0
0.3800000 0.0300000 0.0
0.3900000 0.0300000 0.0
0.4000000 0.0300000 0.0
0.4100000 0.0300000 0.0
0.4200000 0.0300000 0.0
0.4300000 0.0300000 0.0
0.4400000 0.0300000 0.0
0.4500000 0.0300000 0.0
0.4600000 0.0300000 0.0
0.4700000 0.0300000 0.0
0.4800000 0.0300000 0.0
0.4900000 0.0300000 0.0
0.5000000 0.0300000 0.0
0.5100000 0.0300000 0.0
0.5200000 0.0300000 0.0
0.5300000 0.0300000 0.0
0.5400000 0.0300000 0.0
0.5500000 0.0300000 0.0
0.5600000 0.0300000 0.0
0.5700000 0.0300000 0.0
0.5800000 0.0300000 0.0
0.5900000 0.0300000 0.0
0.6000000 0.0300000 0.0
0.6100000 0.0300000 0.0
0.6200000 0.0300000 0.0
0.6300000 0.0300000 0.0
0.6400000 0.0300000 0.0
0.6500000 0.0300000 0.0
0.6600000 0.0300000 0.0
0.6700000 0.0300000 0.0
0.6800000 0.0300000 0.0
0.6900000 0.0300000 0.0
0.7000000 0.0300000 0.0
0.7100000 0.0300000 0.0
0.7200000 0.0300000 0.0
0.7300000 0.0300000 0.0
0.7400000 0.0300000 0.0
0.7500000 0.0300000 0.0
0.7600000 0.0300000 0.0
0.7700000 0.0300000 0.0
0.7800000 0.0300000 0.0
0.7900000 0.0300000 0.0
0.8000000 0.0300000 0.0
0.8100000 0.0300000 0.0
0.8200000 0.0300000 0.0
0.8300000 0.0300000 0.0
0.8400000 0.0300000 0.0
0.8500000 0.0300000 0.0
0.8600000 0.0300000 0.0
0.8700000 0.0300000 0.0
0.8800000 0.0300000 0.0
0.8900000 0.0300000 0.0
0.9000000 0.0300000 0.0
0.9100000 0.0300000 0.0
0.9200000 0.0300000 0.0
0.9300000 0.0300000 0.0
0.9400000 0.0300000 0.0
0.9500000 0.0300000 0.0
0.9600000 0.0300000 0.0
0.9700000 0.0300000 0.0
0.9800000 0.0300000 0.0
0.9900000 0.0300000 0.0
1.0000000 0.0300000 0.0
0.0000000 0.0400000 0.0
0.0100000 0.0400000 0.0
0.0200000 0.0400000 0.0
0.0300000 0.0400000 0.0
0.0400000 0.0400000 0.0
0.0500000 0.0400000 0.0
0.0600000 0.0400000 0.0
[...]
POINT_DATA 10201
VECTORS velocity float
0.0000000 0.0000000 0.0
0.0000000 0.0000000 0.0
0.0000000 0.0000000 0.0
0.0000000 0.0000000 0.0
0.0000000 0.0000000 0.0
0.0000000 0.0000000 0.0
0.0000000 0.0000000 0.0
0.0000000 0.0000000 0.0
0.0000000 0.0000000 0.0
0.0000000 0.0000000 0.0
0.0000000 0.0000000 0.0
0.0000000 0.0000000 0.0
0.0000000 0.0000000 0.0
0.0000000 0.0000000 0.0
0.0000000 0.0000000 0.0
0.0000000 0.0000000 0.0
0.0000000 0.0000000 0.0
0.0000000 0.0000000 0.0
0.0000000 0.0000000 0.0
0.0000000 0.0000000 0.0
0.0000000 0.0000000 0.0
0.0000000 0.0000000 0.0
0.0000000 0.0000000 0.0
0.0000000 0.0000000 0.0
0.0000000 0.0000000 0.0
0.0000000 0.0000000 0.0
0.0000000 0.0000000 0.0
0.0000000 0.0000000 0.0
0.0000000 0.0000000 0.0
0.0000000 0.0000000 0.0
0.0000000 0.0000000 0.0
0.0000000 0.0000000 0.0
0.0000000 0.0000000 0.0
0.0000000 0.0000000 0.0
0.0000000 0.0000000 0.0
0.0000000 0.0000000 0.0
0.0000000 0.0000000 0.0
0.0000000 0.0000000 0.0
0.0000000 0.0000000 0.0
0.0000000 0.0000000 0.0
0.0000000 0.0000000 0.0
0.0000000 0.0000000 0.0
0.0000000 0.0000000 0.0
0.0000000 0.0000000 0.0
0.0000000 0.0000000 0.0
0.0000000 0.0000000 0.0
0.0000000 0.0000000 0.0
0.0000000 0.0000000 0.0
0.0000000 0.0000000 0.0
0.0000000 0.0000000 0.0
0.0000000 0.0000000 0.0
0.0000000 0.0000000 0.0
0.0000000 0.0000000 0.0
0.0000000 0.0000000 0.0
0.0000000 0.0000000 0.0
0.0000000 0.0000000 0.0
0.0000000 0.0000000 0.0
0.0000000 0.0000000 0.0
0.0000000 0.0000000 0.0
0.0000000 0.0000000 0.0
0.0000000 0.0000000 0.0
0.0000000 0.0000000 0.0
0.0000000 0.0000000 0.0
0.0000000 0.0000000 0.0
0.0000000 0.0000000 0.0
0.0000000 0.0000000 0.0
0.0000000 0.0000000 0.0
0.0000000 0.0000000 0.0
0.0000000 0.0000000 0.0
0.0000000 0.0000000 0.0
0.0000000 0.0000000 0.0
0.0000000 0.0000000 0.0
0.0000000 0.0000000 0.0
0.0000000 0.0000000 0.0
0.0000000 0.0000000 0.0
0.0000000 0.0000000 0.0
0.0000000 0.0000000 0.0
0.0000000 0.0000000 0.0
0.0000000 0.0000000 0.0
0.0000000 0.0000000 0.0
0.0000000 0.0000000 0.0
0.0000000 0.0000000 0.0
0.0000000 0.0000000 0.0
0.0000000 0.0000000 0.0
0.0000000 0.0000000 0.0
0.0000000 0.0000000 0.0
0.0000000 0.0000000 0.0
0.0000000 0.0000000 0.0
0.0000000 0.0000000 0.0
0.0000000 0.0000000 0.0
0.0000000 0.0000000 0.0
0.0000000 0.0000000 0.0
0.0000000 0.0000000 0.0
0.0000000 0.0000000 0.0
0.0000000 0.0000000 0.0
0.0000000 0.0000000 0.0
0.0000000 0.0000000 0.0
0.0000000 0.0000000 0.0
0.0000000 0.0000000 0.0
0.0000000 0.0000000 0.0
0.0000128 0.0000000 0.0
0.0000000 0.0000000 0.0
0.0000480 -0.0000520 0.0
0.0003083 -0.0001916 0.0
0.0007800 -0.0003183 0.0
0.0014124 -0.0004034 0.0
0.0021367 -0.0004417 0.0
0.0028829 -0.0004371 0.0
0.0035899 -0.0003982 0.0
0.0042117 -0.0003366 0.0
0.0047204 -0.0002645 0.0
0.0051062 -0.0001930 0.0
0.0053750 -0.0001307 0.0
0.0055438 -0.0000830 0.0
0.0056359 -0.0000521 0.0
0.0056754 -0.0000369 0.0
0.0056830 -0.0000341 0.0
0.0056723 -0.0000383 0.0
0.0056474 -0.0000438 0.0
0.0056033 -0.0000450 0.0
0.0055259 -0.0000372 0.0
0.0053946 -0.0000175 0.0
0.0051845 0.0000158 0.0
0.0048689 0.0000632 0.0
0.0044200 0.0001247 0.0
0.0038099 0.0002004 0.0
0.0030102 0.0002909 0.0
0.0019920 0.0003970 0.0
0.0007257 0.0005197 0.0
-0.0008180 0.0006598 0.0
-0.0026675 0.0008175 0.0
-0.0048483 0.0009925 0.0
-0.0073815 0.0011835 0.0
-0.0102818 0.0013882 0.0
-0.0135556 0.0016033 0.0
-0.0171995 0.0018246 0.0
-0.0211991 0.0020469 0.0
-0.0255275 0.0022641 0.0
-0.0301458 0.0024696 0.0
-0.0350030 0.0026563 0.0
-0.0400367 0.0028170 0.0
-0.0451749 0.0029442 0.0
-0.0503373 0.0030313 0.0
-0.0554378 0.0030717 0.0
-0.0603865 0.0030597 0.0
-0.0650913 0.0029904 0.0
-0.0694606 0.0028599 0.0
-0.0734046 0.0026652 0.0
-0.0768368 0.0024047 0.0
-0.0796759 0.0020780 0.0
-0.0818465 0.0016860 0.0
-0.0832807 0.0012317 0.0
-0.0839197 0.0007193 0.0
-0.0837146 0.0001554 0.0
-0.0826285 -0.0004514 0.0
-0.0806375 -0.0010902 0.0
-0.0777331 -0.0017479 0.0
-0.0739233 -0.0024090 0.0
-0.0692347 -0.0030560 0.0
-0.0637137 -0.0036694 0.0
-0.0574279 -0.0042289 0.0
-0.0504665 -0.0047137 0.0
-0.0429399 -0.0051034 0.0
-0.0349792 -0.0053798 0.0
-0.0267335 -0.0055275 0.0
-0.0183664 -0.0055358 0.0
-0.0100518 -0.0053995 0.0
-0.0019678 -0.0051203 0.0
0.0057099 -0.0047067 0.0
0.0128155 -0.0041747 0.0
0.0192002 -0.0035467 0.0
0.0247391 -0.0028504 0.0
0.0293375 -0.0021170 0.0
0.0329349 -0.0013790 0.0
0.0355080 -0.0006679 0.0
0.0370707 -0.0000117 0.0
0.0376727 0.0005667 0.0
0.0373954 0.0010510 0.0
0.0363466 0.0014319 0.0
0.0346531 0.0017073 0.0
0.0324532 0.0018816 0.0
0.0298884 0.0019642 0.0
0.0270951 0.0019681 0.0
0.0241988 0.0019085 0.0
0.0213075 0.0018011 0.0
0.0185094 0.0016611 0.0
0.0158709 0.0015020 0.0
0.0134373 0.0013352 0.0
0.0112349 0.0011696 0.0
0.0092737 0.0010120 0.0
0.0075507 0.0008668 0.0
0.0060538 0.0007368 0.0
0.0047642 0.0006233 0.0
0.0036601 0.0005259 0.0
0.0027194 0.0004426 0.0
0.0019231 0.0003694 0.0
0.0012589 0.0003002 0.0
0.0007237 0.0002275 0.0
0.0003250 0.0001446 0.0
0.0000759 0.0000529 0.0
-0.0000193 -0.0000227 0.0
0.0000000 0.0000000 0.0
0.0000000 0.0000000 0.0
0.0001755 -0.0003083 0.0
0.0007069 -0.0007320 0.0
0.0015552 -0.0011040 0.0
0.0026385 -0.0013567 0.0
0.0038528 -0.0014706 0.0
0.0050911 -0.0014533 0.0
0.0062590 -0.0013288 0.0
0.0072839 -0.0011305 0.0
0.0081200 -0.0008945 0.0
0.0087487 -0.0006547 0.0
0.0091746 -0.0004376 0.0
0.0094193 -0.0002609 0.0
0.0095141 -0.0001316 0.0
0.0094916 -0.0000471 0.0
0.0093786 0.0000032 0.0
0.0091904 0.0000356 0.0
0.0089272 0.0000689 0.0
0.0085736 0.0001216 0.0
0.0080997 0.0002088 0.0
0.0074647 0.0003413 0.0
0.0066199 0.0005257 0.0
0.0055128 0.0007645 0.0
0.0040894 0.0010590 0.0
0.0022949 0.0014098 0.0
0.0000749 0.0018179 0.0
-0.0026238 0.0022845 0.0
-0.0058520 0.0028100 0.0
-0.0096556 0.0033932 0.0
-0.0140724 0.0040303 0.0
-0.0191285 0.0047140 0.0
-0.0248348 0.0054335 0.0
-0.0311832 0.0061741 0.0
-0.0381448 0.0069178 0.0
-0.0456677 0.0076435 0.0
-0.0536773 0.0083280 0.0
-0.0620777 0.0089468 0.0
-0.0707547 0.0094755 0.0
-0.0795793 0.0098909 0.0
-0.0884130 0.0101719 0.0
-0.0971119 0.0103006 0.0
-0.1055322 0.0102630 0.0
-0.1135335 0.0100491 0.0
-0.1209823 0.0096534 0.0
-0.1277547 0.0090741 0.0
-0.1337379 0.0083133 0.0
-0.1388313 0.0073762 0.0
-0.1429469 0.0062713 0.0
-0.1460099 0.0050096 0.0
-0.1479583 0.0036048 0.0
-0.1487431 0.0020732 0.0
-0.1483281 0.0004339 0.0
-0.1466904 -0.0012912 0.0
-0.1438206 -0.0030771 0.0
-0.1397233 -0.0048954 0.0
-0.1344178 -0.0067142 0.0
-0.1279395 -0.0084984 0.0
-0.1203407 -0.0102096 0.0
-0.1116914 -0.0118067 0.0
-0.1020811 -0.0132472 0.0
-0.0916187 -0.0144880 0.0
-0.0804334 -0.0154872 0.0
-0.0686743 -0.0162065 0.0
-0.0565088 -0.0166129 0.0
-0.0441211 -0.0166817 0.0
-0.0317085 -0.0163986 0.0
-0.0194773 -0.0157617 0.0
-0.0076371 -0.0147834 0.0
0.0036054 -0.0134903 0.0
0.0140534 -0.0119236 0.0
0.0235271 -0.0101373 0.0
0.0318712 -0.0081958 0.0
0.0389606 -0.0061705 0.0
0.0447065 -0.0041358 0.0
0.0490601 -0.0021647 0.0
0.0520151 -0.0003247 0.0
0.0536085 0.0013261 0.0
0.0539192 0.0027423 0.0
0.0530648 0.0038934 0.0
0.0511954 0.0047648 0.0
0.0484859 0.0053581 0.0
0.0451264 0.0056896 0.0
0.0413112 0.0057877 0.0
0.0372277 0.0056894 0.0
0.0330465 0.0054366 0.0
0.0289138 0.0050721 0.0
0.0249462 0.0046360 0.0
0.0212293 0.0041636 0.0
0.0178186 0.0036842 0.0
0.0147430 0.0032198 0.0
0.0120093 0.0027865 0.0
0.0096076 0.0023937 0.0
0.0075172 0.0020448 0.0
0.0057121 0.0017370 0.0
0.0041670 0.0014605 0.0
0.0028634 0.0011994 0.0
0.0017938 0.0009339 0.0
0.0009638 0.0006478 0.0
0.0003873 0.0003442 0.0
0.0000735 0.0000759 0.0
0.0000000 0.0000000 0.0
0.0000000 0.0000000 0.0
0.0002893 -0.0007590 0.0
0.0010578 -0.0015713 0.0
0.0022096 -0.0022498 0.0
0.0036275 -0.0027010 0.0
0.0051794 -0.0028944 0.0
0.0067351 -0.0028433 0.0
0.0081810 -0.0025909 0.0
0.0094304 -0.0021977 0.0
0.0104281 -0.0017294 0.0
0.0111501 -0.0012475 0.0
0.0115990 -0.0008012 0.0
0.0117958 -0.0004225 0.0
0.0117715 -0.0001244 0.0
0.0115569 0.0000985 0.0
0.0111744 0.0002672 0.0
0.0106308 0.0004131 0.0
0.0099137 0.0005729 0.0
0.0089907 0.0007824 0.0
0.0078115 0.0010717 0.0
0.0063119 0.0014624 0.0
0.0044193 0.0019676 0.0
0.0020563 0.0025936 0.0
-0.0008552 0.0033426 0.0
-0.0043921 0.0042149 0.0
-0.0086272 0.0052095 0.0
-0.0136261 0.0063239 0.0
-0.0194429 0.0075515 0.0
-0.0261153 0.0088802 0.0
-0.0336587 0.0102904 0.0
-0.0420611 0.0117549 0.0
-0.0512790 0.0132382 0.0
-0.0612360 0.0146982 0.0
-0.0718229 0.0160877 0.0
-0.0829014 0.0173571 0.0
-0.0943101 0.0184569 0.0
-0.1058720 0.0193415 0.0
-0.1174029 0.0199712 0.0
-0.1287199 0.0203146 0.0
-0.1396478 0.0203496 0.0
-0.1500247 0.0200635 0.0
-0.1597058 0.0194528 0.0
-0.1685646 0.0185217 0.0
-0.1764941 0.0172809 0.0
-0.1834051 0.0157461 0.0
-0.1892257 0.0139365 0.0
-0.1938990 0.0118743 0.0
-0.1973814 0.0095834 0.0
-0.1996407 0.0070894 0.0
-0.2006545 0.0044192 0.0
-0.2004090 0.0016014 0.0
-0.1988984 -0.0013334 0.0
-0.1961240 -0.0043521 0.0
-0.1920944 -0.0074186 0.0
-0.1868262 -0.0104931 0.0
-0.1803441 -0.0135317 0.0
-0.1726830 -0.0164862 0.0
-0.1638887 -0.0193041 0.0
-0.1540200 -0.0219290 0.0
-0.1431505 -0.0243017 0.0
-0.1313702 -0.0263613 0.0
-0.1187869 -0.0280478 0.0
-0.1055274 -0.0293044 0.0
-0.0917379 -0.0300807 0.0
-0.0775828 -0.0303361 0.0
-0.0632432 -0.0300433 0.0
-0.0489138 -0.0291917 0.0
-0.0347988 -0.0277894 0.0
-0.0211061 -0.0258652 0.0
-0.0080413 -0.0234684 0.0
0.0041986 -0.0206682 0.0
0.0154322 -0.0175505 0.0
0.0254992 -0.0142144 0.0
0.0342663 -0.0107673 0.0
0.0416312 -0.0073202 0.0
0.0475265 -0.0039816 0.0
0.0519221 -0.0008532 0.0
0.0548273 0.0019755 0.0
0.0562921 0.0044312 0.0
0.0564069 0.0064606 0.0
0.0553005 0.0080332 0.0
0.0531354 0.0091428 0.0
0.0501010 0.0098072 0.0
0.0464026 0.0100658 0.0
0.0422497 0.0099749 0.0
0.0378431 0.0096022 0.0
0.0333638 0.0090196 0.0
0.0289640 0.0082972 0.0
0.0247623 0.0074983 0.0
0.0208426 0.0066762 0.0
0.0172561 0.0058722 0.0
0.0140266 0.0051153 0.0
0.0111562 0.0044214 0.0
0.0086331 0.0037928 0.0
0.0064393 0.0032181 0.0
0.0045587 0.0026734 0.0
0.0029834 0.0021271 0.0
0.0017185 0.0015511 0.0
0.0007820 0.0009432 0.0
0.0002004 0.0003646 0.0
0.0000000 0.0000000 0.0
0.0000000 0.0000000 0.0
0.0003759 -0.0013661 0.0
0.0013360 -0.0026523 0.0
0.0027283 -0.0036737 0.0
0.0043949 -0.0043264 0.0
0.0061745 -0.0045783 0.0
0.0079166 -0.0044549 0.0
0.0094949 -0.0040240 0.0
0.0108156 -0.0033775 0.0
0.0118210 -0.0026143 0.0
0.0124863 -0.0018255 0.0
0.0128134 -0.0010833 0.0
0.0128211 -0.0004334 0.0
0.0125352 0.0001073 0.0
0.0119778 0.0005500 0.0
0.0111578 0.0009293 0.0
0.0100643 0.0012962 0.0
0.0086634 0.0017090 0.0
0.0068982 0.0022239 0.0
0.0046928 0.0028876 0.0
0.0019579 0.0037335 0.0
-0.0014030 0.0047812 0.0
-0.0054880 0.0060390 0.0
-0.0103917 0.0075075 0.0
-0.0162004 0.0091818 0.0
-0.0229868 0.0110518 0.0
-0.0308030 0.0131001 0.0
-0.0396731 0.0152992 0.0
-0.0495854 0.0176090 0.0
-0.0604872 0.0199760 0.0
-0.0722817 0.0223343 0.0
-0.0848295 0.0246085 0.0
-0.0979545 0.0267180 0.0
-0.1114539 0.0285832 0.0
-0.1251097 0.0301306 0.0
-0.1387019 0.0312985 0.0
-0.1520198 0.0320396 0.0
-0.1648708 0.0323235 0.0
-0.1770867 0.0321357 0.0
-0.1885259 0.0314767 0.0
-0.1990738 0.0303586 0.0
-0.2086412 0.0288029 0.0
-0.2171609 0.0268374 0.0
-0.2245841 0.0244939 0.0
-0.2308772 0.0218058 0.0
-0.2360175 0.0188073 0.0
-0.2399909 0.0155320 0.0
-0.2427889 0.0120130 0.0
-0.2444069 0.0082826 0.0
-0.2448424 0.0043731 0.0
-0.2440946 0.0003172 0.0
-0.2421636 -0.0038511 0.0
-0.2390507 -0.0080952 0.0
-0.2347587 -0.0123749 0.0
-0.2292930 -0.0166457 0.0
-0.2226628 -0.0208574 0.0
-0.2148832 -0.0249538 0.0
-0.2059766 -0.0288725 0.0
-0.1959759 -0.0325449 0.0
-0.1849266 -0.0358971 0.0
-0.1728898 -0.0388517 0.0
-0.1599443 -0.0413300 0.0
-0.1461893 -0.0432554 0.0
-0.1317455 -0.0445575 0.0
-0.1167560 -0.0451764 0.0
-0.1013848 -0.0450675 0.0
-0.0858152 -0.0442061 0.0
-0.0702455 -0.0425911 0.0
-0.0548837 -0.0402478 0.0
-0.0399406 -0.0372283 0.0
-0.0256231 -0.0336108 0.0
-0.0121265 -0.0294963 0.0
0.0003716 -0.0250046 0.0
0.0117165 -0.0202678 0.0
0.0217799 -0.0154249 0.0
0.0304620 -0.0106156 0.0
0.0376924 -0.0059747 0.0
0.0434312 -0.0016277 0.0
0.0476698 0.0023137 0.0
0.0504333 0.0057564 0.0
0.0517821 0.0086296 0.0
0.0518137 0.0108890 0.0
0.0506621 0.0125205 0.0
0.0484944 0.0135408 0.0
0.0455030 0.0139961 0.0
0.0418946 0.0139579 0.0
0.0378774 0.0135150 0.0
0.0336471 0.0127651 0.0
0.0293760 0.0118056 0.0
0.0252051 0.0107260 0.0
0.0212404 0.0096025 0.0
0.0175540 0.0084936 0.0
0.0141874 0.0074383 0.0
0.0111590 0.0064538 0.0
0.0084718 0.0055349 0.0
0.0061229 0.0046553 0.0
0.0041126 0.0037741 0.0
0.0024524 0.0028493 0.0
0.0011722 0.0018624 0.0
0.0003262 0.0008579 0.0
0.0000000 0.0000000 0.0
0.0000000 0.0000000 0.0
0.0004425 -0.0020949 0.0
0.0015553 -0.0039237 0.0
0.0031350 -0.0053087 0.0
0.0049799 -0.0061472 0.0
0.0068971 -0.0064161 0.0
0.0087156 -0.0061637 0.0
0.0102992 -0.0054899 0.0
0.0115525 -0.0045238 0.0
0.0124199 -0.0034001 0.0
0.0128801 -0.0022399 0.0
0.0129361 -0.0011360 0.0
0.0126037 -0.0001444 0.0
0.0118998 0.0007189 0.0
0.0108310 0.0014760 0.0
0.0093847 0.0021807 0.0
0.0075236 0.0029075 0.0
0.0051839 0.0037391 0.0
0.0022786 0.0047530 0.0
-0.0012965 0.0060120 0.0
-0.0056544 0.0075583 0.0
-0.0109092 0.0094135 0.0
-0.0171679 0.0115823 0.0
-0.0245233 0.0140550 0.0
-0.0330458 0.0168100 0.0
-0.0427739 0.0198122 0.0
-0.0537044 0.0230102 0.0
-0.0657845 0.0263339 0.0
-0.0789067 0.0296943 0.0
-0.0929104 0.0329867 0.0
-0.1075895 0.0360971 0.0
-0.1227058 0.0389110 0.0
-0.1380057 0.0413226 0.0
-0.1532379 0.0432429 0.0
-0.1681683 0.0446051 0.0
-0.1825910 0.0453670 0.0
-0.1963346 0.0455105 0.0
-0.2092636 0.0450382 0.0
-0.2212766 0.0439697 0.0
-0.2323020 0.0423367 0.0
-0.2422930 0.0401789 0.0
-0.2512218 0.0375399 0.0
-0.2590743 0.0344647 0.0
-0.2658460 0.0309972 0.0
-0.2715379 0.0271794 0.0
-0.2761535 0.0230502 0.0
-0.2796973 0.0186457 0.0
-0.2821724 0.0139994 0.0
-0.2835803 0.0091428 0.0
-0.2839197 0.0041069 0.0
-0.2831869 -0.0010774 0.0
-0.2813753 -0.0063773 0.0
-0.2784764 -0.0117570 0.0
-0.2744799 -0.0171763 0.0
-0.2693751 -0.0225889 0.0
-0.2631525 -0.0279415 0.0
-0.2558048 -0.0331724 0.0
-0.2473300 -0.0382113 0.0
-0.2377333 -0.0429790 0.0
-0.2270307 -0.0473878 0.0
-0.2152519 -0.0513437 0.0
-0.2024444 -0.0547483 0.0
-0.1886764 -0.0575031 0.0
-0.1740402 -0.0595139 0.0
-0.1586544 -0.0606968 0.0
-0.1426648 -0.0609841 0.0
-0.1262434 -0.0603310 0.0
-0.1095855 -0.0587210 0.0
-0.0929045 -0.0561701 0.0
-0.0764244 -0.0527290 0.0
-0.0603707 -0.0484823 0.0
-0.0449608 -0.0435452 0.0
-0.0303951 -0.0380573 0.0
-0.0168491 -0.0321756 0.0
-0.0044694 -0.0260657 0.0
0.0066288 -0.0198941 0.0
0.0163601 -0.0138224 0.0
0.0246664 -0.0080019 0.0
0.0315140 -0.0025710 0.0
0.0368925 0.0023483 0.0
0.0408159 0.0066528 0.0
0.0433249 0.0102628 0.0
0.0444915 0.0131265 0.0
0.0444217 0.0152249 0.0
0.0432561 0.0165747 0.0
0.0411652 0.0172278 0.0
0.0383408 0.0172672 0.0
0.0349840 0.0167986 0.0
0.0312912 0.0159403 0.0
0.0274413 0.0148117 0.0
0.0235866 0.0135233 0.0
0.0198470 0.0121684 0.0
0.0163095 0.0108164 0.0
0.0130318 0.0095084 0.0
0.0100483 0.0082542 0.0
0.0073798 0.0070327 0.0
0.0050445 0.0057977 0.0
0.0030692 0.0044914 0.0
0.0015031 0.0030694 0.0
0.0004325 0.0015369 0.0
0.0000000 0.0000000 0.0
0.0000000 0.0000000 0.0
0.0004984 -0.0029214 0.0
0.0017354 -0.0053447 0.0
0.0034576 -0.0070984 0.0
0.0054176 -0.0080885 0.0
0.0073887 -0.0083139 0.0
0.0091804 -0.0078571 0.0
0.0106494 -0.0068609 0.0
0.0117026 -0.0054982 0.0
0.0122912 -0.0039419 0.0
0.0124003 -0.0023417 0.0
0.0120348 -0.0008069 0.0
0.0112055 0.0006029 0.0
0.0099158 0.0018800 0.0
0.0081500 0.0030650 0.0
0.0058660 0.0042367 0.0
0.0029925 0.0054970 0.0
-0.0005695 0.0069540 0.0
-0.0049387 0.0087042 0.0
-0.0102439 0.0108206 0.0
-0.0166124 0.0133462 0.0
-0.0241591 0.0162947 0.0
-0.0329763 0.0196532 0.0
-0.0431226 0.0233854 0.0
-0.0546120 0.0274324 0.0
-0.0674027 0.0317104 0.0
-0.0813901 0.0361107 0.0
-0.0964052 0.0405015 0.0
-0.1122226 0.0447349 0.0
-0.1285764 0.0486589 0.0
-0.1451810 0.0521297 0.0
-0.1617539 0.0550247 0.0
-0.1780352 0.0572501 0.0
-0.1938016 0.0587458 0.0
-0.2088731 0.0594838 0.0
-0.2231142 0.0594648 0.0
-0.2364300 0.0587122 0.0
-0.2487600 0.0572654 0.0
-0.2600709 0.0551741 0.0
-0.2703493 0.0524931 0.0
-0.2795956 0.0492784 0.0
-0.2878186 0.0455842 0.0
-0.2950316 0.0414617 0.0
-0.3012495 0.0369574 0.0
-0.3064868 0.0321133 0.0
-0.3107560 0.0269667 0.0
-0.3140668 0.0215509 0.0
-0.3164253 0.0158960 0.0
-0.3178339 0.0100300 0.0
-0.3182907 0.0039798 0.0
-0.3177896 -0.0022272 0.0
-0.3163203 -0.0085617 0.0
-0.3138681 -0.0149907 0.0
-0.3104146 -0.0214762 0.0
-0.3059378 -0.0279731 0.0
-0.3004134 -0.0344277 0.0
-0.2938157 -0.0407763 0.0
-0.2861198 -0.0469441 0.0
-0.2773035 -0.0528442 0.0
-0.2673512 -0.0583785 0.0
-0.2562569 -0.0634379 0.0
-0.2440293 -0.0679055 0.0
-0.2306963 -0.0716596 0.0
-0.2163104 -0.0745795 0.0
-0.2009533 -0.0765518 0.0
-0.1847395 -0.0774785 0.0
-0.1678187 -0.0772854 0.0
-0.1503752 -0.0759300 0.0
-0.1326246 -0.0734089 0.0
-0.1148067 -0.0697622 0.0
-0.0971755 -0.0650744 0.0
-0.0799865 -0.0594719 0.0
-0.0634828 -0.0531162 0.0
-0.0478827 -0.0461935 0.0
-0.0333688 -0.0389029 0.0
-0.0200835 -0.0314451 0.0
-0.0081279 -0.0240122 0.0
0.0024337 -0.0167815 0.0
0.0115658 -0.0099124 0.0
0.0192551 -0.0035455 0.0
0.0255044 0.0021972 0.0
0.0303312 0.0072135 0.0
0.0337708 0.0114237 0.0
0.0358809 0.0147761 0.0
0.0367479 0.0172527 0.0
0.0364902 0.0188732 0.0
0.0352567 0.0196962 0.0
0.0332211 0.0198147 0.0
0.0305709 0.0193483 0.0
0.0274944 0.0184307 0.0
0.0241681 0.0171968 0.0
0.0207464 0.0157707 0.0
0.0173556 0.0142535 0.0
0.0140923 0.0127151 0.0
0.0110268 0.0111868 0.0
0.0082104 0.0096591 0.0
0.0056866 0.0080848 0.0
0.0035053 0.0063906 0.0
0.0017399 0.0044990 0.0
0.0005085 0.0023610 0.0
0.0000000 0.0000000 0.0
0.0000000 0.0000000 0.0
0.0005495 -0.0038304 0.0
0.0018895 -0.0068829 0.0
0.0037127 -0.0089909 0.0
0.0057244 -0.0100783 0.0
0.0076643 -0.0101789 0.0
0.0093244 -0.0094244 0.0
0.0105589 -0.0080122 0.0
0.0112815 -0.0061656 0.0
0.0114536 -0.0040978 0.0
0.0110681 -0.0019834 0.0
0.0101308 0.0000588 0.0
0.0086435 0.0019746 0.0
0.0065897 0.0037744 0.0
0.0039243 0.0055257 0.0
0.0005689 0.0073382 0.0
-0.0035866 0.0093430 0.0
-0.0086758 0.0116702 0.0
-0.0148429 0.0144274 0.0
-0.0222274 0.0176857 0.0
-0.0309493 0.0214735 0.0
-0.0410950 0.0257775 0.0
-0.0527044 0.0305458 0.0
-0.0657583 0.0356907 0.0
-0.0801686 0.0410901 0.0
-0.0957739 0.0465903 0.0
-0.1123437 0.0520126 0.0
-0.1295944 0.0571665 0.0
-0.1472129 0.0618656 0.0
-0.1648840 0.0659451 0.0
-0.1823161 0.0692745 0.0
-0.1992587 0.0717652 0.0
-0.2155127 0.0733703 0.0
-0.2309309 0.0740808 0.0
-0.2454141 0.0739177 0.0
-0.2589028 0.0729239 0.0
-0.2713684 0.0711563 0.0
-0.2828043 0.0686791 0.0
-0.2932192 0.0655590 0.0
-0.3026311 0.0618614 0.0
-0.3110630 0.0576481 0.0
-0.3185405 0.0529758 0.0
-0.3250890 0.0478956 0.0
-0.3307331 0.0424525 0.0
-0.3354952 0.0366859 0.0
-0.3393948 0.0306302 0.0
-0.3424485 0.0243150 0.0
-0.3446685 0.0177665 0.0
-0.3460632 0.0110082 0.0
-0.3466356 0.0040627 0.0
-0.3463838 -0.0030478 0.0
-0.3452999 -0.0102988 0.0
-0.3433696 -0.0176627 0.0
-0.3405722 -0.0251066 0.0
-0.3368802 -0.0325901 0.0
-0.3322596 -0.0400636 0.0
-0.3266703 -0.0474661 0.0
-0.3200673 -0.0547235 0.0
-0.3124025 -0.0617475 0.0
-0.3036275 -0.0684344 0.0
-0.2936970 -0.0746656 0.0
-0.2825743 -0.0803089 0.0
-0.2702366 -0.0852220 0.0
-0.2566823 -0.0892570 0.0
-0.2419381 -0.0922677 0.0
-0.2260666 -0.0941187 0.0
-0.2091726 -0.0946952 0.0
-0.1914072 -0.0939150 0.0
-0.1729688 -0.0917386 0.0
-0.1540997 -0.0881782 0.0
-0.1350776 -0.0833026 0.0
-0.1162019 -0.0772379 0.0
-0.0977764 -0.0701612 0.0
-0.0800892 -0.0622896 0.0
-0.0633941 -0.0538648 0.0
-0.0478957 -0.0451351 0.0
-0.0337415 -0.0363396 0.0
-0.0210219 -0.0276956 0.0
-0.0097786 -0.0193924 0.0
-0.0000170 -0.0115903 0.0
0.0082800 -0.0044233 0.0
0.0151410 0.0019964 0.0
0.0206010 0.0075768 0.0
0.0247028 0.0122478 0.0
0.0275026 0.0159654 0.0
0.0290776 0.0187191 0.0
0.0295320 0.0205363 0.0
0.0289982 0.0214844 0.0
0.0276333 0.0216670 0.0
0.0256102 0.0212145 0.0
0.0231054 0.0202713 0.0
0.0202879 0.0189808 0.0
0.0173087 0.0174704 0.0
0.0142953 0.0158372 0.0
0.0113511 0.0141361 0.0
0.0085591 0.0123729 0.0
0.0059923 0.0105027 0.0