# vtk DataFile Version 2.0
Lid Driven Cavity Flow
ASCII
DATASET STRUCTURED_GRID
DIMENSIONS 31 31 1
POINTS 961 float
0.0000000 0.0000000 0.0
0.0333333 0.0000000 0.0
0.0666667 0.0000000 0.0
0.1000000 0.0000000 0.0
0.1333333 0.0000000 0.0
0.1666667 0.0000000 0.0
0.2000000 0.0000000 0.0
0.2333333 0.0000000 0.0
0.2666667 0.0000000 0.0
0.3000000 0.0000000 0.0
0.3333333 0.0000000 0.0
0.3666667 0.0000000 0.0
0.4000000 0.0000000 0.0
0.4333333 0.0000000 0.0
0.4666667 0.0000000 0.0
0.5000000 0.0000000 0.0
0.5333333 0.0000000 0.0
0.5666667 0.0000000 0.0
0.6000000 0.0000000 0.0
0.6333333 0.0000000 0.0
0.6666667 0.0000000 0.0
0.7000000 0.0000000 0.0
0.7333333 0.0000000 0.0
0.7666667 0.0000000 0.0
0.8000000 0.0000000 0.0
0.8333333 0.0000000 0.0
0.8666667 0.0000000 0.0
0.9000000 0.0000000 0.0
0.9333333 0.0000000 0.0
0.9666667 0.0000000 0.0
1.0000000 0.0000000 0.0
0.0000000 0.0333333 0.0
0.0333333 0.0333333 0.0
0.0666667 0.0333333 0.0
0.1000000 0.0333333 0.0
0.1333333 0.0333333 0.0
0.1666667 0.0333333 0.0
0.2000000 0.0333333 0.0
0.2333333 0.0333333 0.0
0.2666667 0.0333333 0.0
0.3000000 0.0333333 0.0
0.3333333 0.0333333 0.0
0.3666667 0.0333333 0.0
0.4000000 0.0333333 0.0
0.4333333 0.0333333 0.0
0.4666667 0.0333333 0.0
0.5000000 0.0333333 0.0
0.5333333 0.0333333 0.0
0.5666667 0.0333333 0.0
0.6000000 0.0333333 0.0
0.6333333 0.0333333 0.0
0.6666667 0.0333333 0.0
0.7000000 0.0333333 0.0
0.7333333 0.0333333 0.0
0.7666667 0.0333333 0.0
0.8000000 0.0333333 0.0
0.8333333 0.0333333 0.0
0.8666667 0.0333333 0.0
0.9000000 0.0333333 0.0
0.9333333 0.0333333 0.0
0.9666667 0.0333333 0.0
1.0000000 0.0333333 0.0
0.0000000 0.0666667 0.0
0.0333333 0.0666667 0.0
0.0666667 0.0666667 0.0
0.1000000 0.0666667 0.0
0.1333333 0.0666667 0.0
0.1666667 0.0666667 0.0
0.2000000 0.0666667 0.0
0.2333333 0.0666667 0.0
0.2666667 0.0666667 0.0
0.3000000 0.0666667 0.0
0.3333333 0.0666667 0.0
0.3666667 0.0666667 0.0
0.4000000 0.0666667 0.0
0.4333333 0.0666667 0.0
0.4666667 0.0666667 0.0
0.5000000 0.0666667 0.0
0.5333333 0.0666667 0.0
0.5666667 0.0666667 0.0
0.6000000 0.0666667 0.0
0.6333333 0.0666667 0.0
0.6666667 0.0666667 0.0
0.7000000 0.0666667 0.0
0.7333333 0.0666667 0.0
0.7666667 0.0666667 0.0
0.8000000 0.0666667 0.0
0.8333333 0.0666667 0.0
0.8666667 0.0666667 0.0
0.9000000 0.0666667 0.0
0.9333333 0.0666667 0.0
0.9666667 0.0666667 0.0
1.0000000 0.0666667 0.0
0.0000000 0.1000000 0.0
0.0333333 0.1000000 0.0
0.0666667 0.1000000 0.0
0.1000000 0.1000000 0.0
0.1333333 0.1000000 0.0
0.1666667 0.1000000 0.0
0.2000000 0.1000000 0.0
0.2333333 0.1000000 0.0
0.2666667 0.1000000 0.0
0.3000000 0.1000000 0.0
0.3333333 0.1000000 0.0
0.3666667 0.1000000 0.0
0.4000000 0.1000000 0.0
0.4333333 0.1000000 0.0
0.4666667 0.1000000 0.0
0.5000000 0.1000000 0.0
0.5333333 0.1000000 0.0
0.5666667 0.1000000 0.0
0.6000000 0.1000000 0.0
0.6333333 0.1000000 0.0
0.6666667 0.1000000 0.0
0.7000000 0.1000000 0.0
0.7333333 0.1000000 0.0
0.7666667 0.1000000 0.0
0.8000000 0.1000000 0.0
0.8333333 0.1000000 0.0
0.8666667 0.1000000 0.0
0.9000000 0.1000000 0.0
0.9333333 0.1000000 0.0
0.9666667 0.1000000 0.0
1.0000000 0.1000000 0.0
0.0000000 0.1333333 0.0
0.0333333 0.1333333 0.0
0.0666667 0.1333333 0.0
0.1000000 0.1333333 0.0
0.1333333 0.1333333 0.0
0.1666667 0.1333333 0.0
0.2000000 0.1333333 0.0
0.2333333 0.1333333 0.0
0.2666667 0.1333333 0.0
0.3000000 0.1333333 0.0
0.3333333 0.1333333 0.0
0.3666667 0.1333333 0.0
0.4000000 0.1333333 0.0
0.4333333 0.1333333 0.0
0.4666667 0.1333333 0.0
0.5000000 0.1333333 0.0
0.5333333 0.1333333 0.0
0.5666667 0.1333333 0.0
0.6000000 0.1333333 0.0
0.6333333 0.1333333 0.0
0.6666667 0.1333333 0.0
0.7000000 0.1333333 0.0
0.7333333 0.1333333 0.0
0.7666667 0.1333333 0.0
0.8000000 0.1333333 0.0
0.8333333 0.1333333 0.0
0.8666667 0.1333333 0.0
0.9000000 0.1333333 0.0
0.9333333 0.1333333 0.0
0.9666667 0.1333333 0.0
1.0000000 0.1333333 0.0
0.0000000 0.1666667 0.0
0.0333333 0.1666667 0.0
0.0666667 0.1666667 0.0
0.1000000 0.1666667 0.0
0.1333333 0.1666667 0.0
0.1666667 0.1666667 0.0
0.2000000 0.1666667 0.0
0.2333333 0.1666667 0.0
0.2666667 0.1666667 0.0
0.3000000 0.1666667 0.0
0.3333333 0.1666667 0.0
0.3666667 0.1666667 0.0
0.4000000 0.1666667 0.0
0.4333333 0.1666667 0.0
0.4666667 0.1666667 0.0
0.5000000 0.1666667 0.0
0.5333333 0.1666667 0.0
0.5666667 0.1666667 0.0
0.6000000 0.1666667 0.0
0.6333333 0.1666667 0.0
0.6666667 0.1666667 0.0
0.7000000 0.1666667 0.0
0.7333333 0.1666667 0.0
0.7666667 0.1666667 0.0
0.8000000 0.1666667 0.0
0.8333333 0.1666667 0.0
0.8666667 0.1666667 0.0
0.9000000 0.1666667 0.0
0.9333333 0.1666667 0.0
0.9666667 0.1666667 0.0
1.0000000 0.1666667 0.0
0.0000000 0.2000000 0.0
0.0333333 0.2000000 0.0
0.0666667 0.2000000 0.0
0.1000000 0.2000000 0.0
0.1333333 0.2000000 0.0
0.1666667 0.2000000 0.0
0.2000000 0.2000000 0.0
0.2333333 0.2000000 0.0
0.2666667 0.2000000 0.0
0.3000000 0.2000000 0.0
0.3333333 0.2000000 0.0
0.3666667 0.2000000 0.0
0.4000000 0.2000000 0.0
0.4333333 0.2000000 0.0
0.4666667 0.2000000 0.0
0.5000000 0.2000000 0.0
0.5333333 0.2000000 0.0
0.5666667 0.2000000 0.0
0.6000000 0.2000000 0.0
0.6333333 0.2000000 0.0
0.6666667 0.2000000 0.0
0.7000000 0.2000000 0.0
0.7333333 0.2000000 0.0
0.7666667 0.2000000 0.0
0.8000000 0.2000000 0.0
0.8333333 0.2000000 0.0
0.8666667 0.2000000 0.0
0.9000000 0.2000000 0.0
0.9333333 0.2000000 0.0
0.9666667 0.2000000 0.0
1.0000000 0.2000000 0.0
0.0000000 0.2333333 0.0
0.0333333 0.2333333 0.0
0.0666667 0.2333333 0.0
0.1000000 0.2333333 0.0
0.1333333 0.2333333 0.0
0.1666667 0.2333333 0.0
0.2000000 0.2333333 0.0
0.2333333 0.2333333 0.0
0.2666667 0.2333333 0.0
0.3000000 0.2333333 0.0
0.3333333 0.2333333 0.0
0.3666667 0.2333333 0.0
0.4000000 0.2333333 0.0
0.4333333 0.2333333 0.0
0.4666667 0.2333333 0.0
0.5000000 0.2333333 0.0
0.5333333 0.2333333 0.0
0.5666667 0.2333333 0.0
0.6000000 0.2333333 0.0
0.6333333 0.2333333 0.0
0.6666667 0.2333333 0.0
0.7000000 0.2333333 0.0
0.7333333 0.2333333 0.0
0.7666667 0.2333333 0.0
0.8000000 0.2333333 0.0
0.8333333 0.2333333 0.0
0.8666667 0.2333333 0.0
0.9000000 0.2333333 0.0
0.9333333 0.2333333 0.0
0.9666667 0.2333333 0.0
1.0000000 0.2333333 0.0
0.0000000 0.2666667 0.0
0.0333333 0.2666667 0.0
0.0666667 0.2666667 0.0
0.1000000 0.2666667 0.0
0.1333333 0.2666667 0.0
0.1666667 0.2666667 0.0
0.2000000 0.2666667 0.0
0.2333333 0.2666667 0.0
0.2666667 0.2666667 0.0
0.3000000 0.2666667 0.0
0.3333333 0.2666667 0.0
0.3666667 0.2666667 0.0
0.4000000 0.2666667 0.0
0.4333333 0.2666667 0.0
0.4666667 0.2666667 0.0
0.5000000 0.2666667 0.0
0.5333333 0.2666667 0.0
0.5666667 0.2666667 0.0
0.6000000 0.2666667 0.0
0.6333333 0.2666667 0.0
0.6666667 0.2666667 0.0
0.7000000 0.2666667 0.0
0.7333333 0.2666667 0.0
0.7666667 0.2666667 0.0
0.8000000 0.2666667 0.0
0.8333333 0.2666667 0.0
0.8666667 0.2666667 0.0
0.9000000 0.2666667 0.0
0.9333333 0.2666667 0.0
0.9666667 0.2666667 0.0
1.0000000 0.2666667 0.0
0.0000000 0.3000000 0.0
0.0333333 0.3000000 0.0
0.0666667 0.3000000 0.0
0.1000000 0.3000000 0.0
0.1333333 0.3000000 0.0
0.1666667 0.3000000 0.0
0.2000000 0.3000000 0.0
0.2333333 0.3000000 0.0
0.2666667 0.3000000 0.0
0.3000000 0.3000000 0.0
0.3333333 0.3000000 0.0
0.3666667 0.3000000 0.0
0.4000000 0.3000000 0.0
0.4333333 0.3000000 0.0
0.4666667 0.3000000 0.0
0.5000000 0.3000000 0.0
0.5333333 0.3000000 0.0
0.5666667 0.3000000 0.0
0.6000000 0.3000000 0.0
0.6333333 0.3000000 0.0
0.6666667 0.3000000 0.0
0.7000000 0.3000000 0.0
0.7333333 0.3000000 0.0
0.7666667 0.3000000 0.0
0.8000000 0.3000000 0.0
0.8333333 0.3000000 0.0
0.8666667 0.3000000 0.0
0.9000000 0.3000000 0.0
0.9333333 0.3000000 0.0
0.9666667 0.3000000 0.0
1.0000000 0.3000000 0.0
0.0000000 0.3333333 0.0
0.0333333 0.3333333 0.0
0.0666667 0.3333333 0.0
0.1000000 0.3333333 0.0
0.1333333 0.3333333 0.0
0.1666667 0.3333333 0.0
0.2000000 0.3333333 0.0
0.2333333 0.3333333 0.0
0.2666667 0.3333333 0.0
0.3000000 0.3333333 0.0
0.3333333 0.3333333 0.0
0.3666667 0.3333333 0.0
0.4000000 0.3333333 0.0
0.4333333 0.3333333 0.0
0.4666667 0.3333333 0.0
0.5000000 0.3333333 0.0
0.5333333 0.3333333 0.0
0.5666667 0.3333333 0.0
0.6000000 0.3333333 0.0
0.6333333 0.3333333 0.0
0.6666667 0.3333333 0.0
0.7000000 0.3333333 0.0
0.7333333 0.3333333 0.0
0.7666667 0.3333333 0.0
0.8000000 0.3333333 0.0
0.8333333 0.3333333 0.0
0.8666667 0.3333333 0.0
0.9000000 0.3333333 0.0
0.9333333 0.3333333 0.0
0.9666667 0.3333333 0.0
1.0000000 0.3333333 0.0
0.0000000 0.3666667 0.0
0.0333333 0.3666667 0.0
0.0666667 0.3666667 0.0
0.1000000 0.3666667 0.0
0.1333333 0.3666667 0.0
0.1666667 0.3666667 0.0
0.2000000 0.3666667 0.0
0.2333333 0.3666667 0.0
0.2666667 0.3666667 0.0
0.3000000 0.3666667 0.0
0.3333333 0.3666667 0.0
0.3666667 0.3666667 0.0
0.4000000 0.3666667 0.0
0.4333333 0.3666667 0.0
0.4666667 0.3666667 0.0
0.5000000 0.3666667 0.0
0.5333333 0.3666667 0.0
0.5666667 0.3666667 0.0
0.6000000 0.3666667 0.0
0.6333333 0.3666667 0.0
0.6666667 0.3666667 0.0
0.7000000 0.3666667 0.0
0.7333333 0.3666667 0.0
0.7666667 0.3666667 0.0
0.8000000 0.3666667 0.0
0.8333333 0.3666667 0.0
0.8666667 0.3666667 0.0
0.9000000 0.3666667 0.0
0.9333333 0.3666667 0.0
0.9666667 0.3666667 0.0
1.0000000 0.3666667 0.0
0.0000000 0.4000000 0.0
0.0333333 0.4000000 0.0
0.0666667 0.4000000 0.0
0.1000000 0.4000000 0.0
0.1333333 0.4000000 0.0
0.1666667 0.4000000 0.0
0.2000000 0.4000000 0.0
0.2333333 0.4000000 0.0
0.2666667 0.4000000 0.0
0.3000000 0.4000000 0.0
0.3333333 0.4000000 0.0
0.3666667 0.4000000 0.0
0.4000000 0.4000000 0.0
0.4333333 0.4000000 0.0
0.4666667 0.4000000 0.0
0.5000000 0.4000000 0.0
0.5333333 0.4000000 0.0
0.5666667 0.4000000 0.0
0.6000000 0.4000000 0.0
0.6333333 0.4000000 0.0
0.6666667 0.4000000 0.0
0.7000000 0.4000000 0.0
0.7333333 0.4000000 0.0
0.7666667 0.4000000 0.0
0.8000000 0.4000000 0.0
0.8333333 0.4000000 0.0
0.8666667 0.4000000 0.0
0.9000000 0.4000000 0.0
0.9333333 0.4000000 0.0
0.9666667 0.4000000 0.0
1.0000000 0.4000000 0.0
0.0000000 0.4333333 0.0
0.0333333 0.4333333 0.0
0.0666667 0.4333333 0.0
0.1000000 0.4333333 0.0
0.1333333 0.4333333 0.0
0.1666667 0.4333333 0.0
0.2000000 0.4333333 0.0
0.2333333 0.4333333 0.0
[...]
POINT_DATA 961
VECTORS velocity float
0.0000000 0.0000000 0.0
0.0000000 0.0000000 0.0
0.0000000 0.0000000 0.0
0.0000000 0.0000000 0.0
0.0000000 0.0000000 0.0
0.0000000 0.0000000 0.0
0.0000000 0.0000000 0.0
0.0000000 0.0000000 0.0
0.0000000 0.0000000 0.0
0.0000000 0.0000000 0.0
0.0000000 0.0000000 0.0
0.0000000 0.0000000 0.0
0.0000000 0.0000000 0.0
0.0000000 0.0000000 0.0
0.0000000 0.0000000 0.0
0.0000000 0.0000000 0.0
0.0000000 0.0000000 0.0
0.0000000 0.0000000 0.0
0.0000000 0.0000000 0.0
0.0000000 0.0000000 0.0
0.0000000 0.0000000 0.0
0.0000000 0.0000000 0.0
0.0000000 0.0000000 0.0
0.0000000 0.0000000 0.0
0.0000000 0.0000000 0.0
0.0000000 0.0000000 0.0
0.0000000 0.0000000 0.0
0.0000000 0.0000000 0.0
0.0000000 0.0000000 0.0
0.0000000 0.0000000 0.0
-0.0005417 0.0000000 0.0
0.0000000 0.0000000 0.0
0.0017464 -0.0017157 0.0
0.0049211 -0.0021476 0.0
0.0071774 -0.0013847 0.0
0.0078727 -0.0005824 0.0
0.0074358 -0.0002769 0.0
0.0060518 -0.0001329 0.0
0.0027888 0.0003839 0.0
-0.0044490 0.0015584 0.0
-0.0172941 0.0045049 0.0
-0.0350944 0.0099560 0.0
-0.0557927 0.0155544 0.0
-0.0768427 0.0185209 0.0
-0.0958920 0.0182425 0.0
-0.1111129 0.0151546 0.0
-0.1212194 0.0099830 0.0
-0.1254008 0.0034598 0.0
-0.1232002 -0.0037512 0.0
-0.1144850 -0.0109881 0.0
-0.0994800 -0.0174830 0.0
-0.0789259 -0.0222698 0.0
-0.0543062 -0.0241995 0.0
-0.0280828 -0.0221853 0.0
-0.0037468 -0.0158199 0.0
0.0146748 -0.0062828 0.0
0.0239582 0.0031384 0.0
0.0238029 0.0086431 0.0
0.0177102 0.0091340 0.0
0.0100908 0.0067352 0.0
0.0036204 0.0036899 0.0
0.0000000 0.0000000 0.0
0.0000000 0.0000000 0.0
0.0029725 -0.0049211 0.0
0.0069297 -0.0054310 0.0
0.0087293 -0.0029515 0.0
0.0078361 -0.0002583 0.0
0.0042495 0.0018208 0.0
-0.0034131 0.0046469 0.0
-0.0178920 0.0105009 0.0
-0.0405408 0.0200829 0.0
-0.0693420 0.0306454 0.0
-0.0994822 0.0384986 0.0
-0.1265660 0.0417483 0.0
-0.1486892 0.0400993 0.0
-0.1653869 0.0342701 0.0
-0.1766947 0.0253274 0.0
-0.1828303 0.0142880 0.0
-0.1839631 0.0019808 0.0
-0.1801698 -0.0109158 0.0
-0.1714098 -0.0237202 0.0
-0.1575854 -0.0355591 0.0
-0.1386309 -0.0451739 0.0
-0.1147401 -0.0508431 0.0
-0.0866731 -0.0505594 0.0
-0.0562430 -0.0427576 0.0
-0.0267206 -0.0277050 0.0
-0.0027850 -0.0091280 0.0
0.0110231 0.0062480 0.0
0.0140612 0.0137121 0.0
0.0104314 0.0140898 0.0
0.0043773 0.0100908 0.0
0.0000000 0.0000000 0.0
0.0000000 0.0000000 0.0
0.0038414 -0.0086454 0.0
0.0069063 -0.0079043 0.0
0.0059801 -0.0022911 0.0
0.0007635 0.0038974 0.0
-0.0100633 0.0109723 0.0
-0.0294295 0.0220087 0.0
-0.0582527 0.0375116 0.0
-0.0923864 0.0530083 0.0
-0.1256287 0.0634463 0.0
-0.1543258 0.0671800 0.0
-0.1771145 0.0647614 0.0
-0.1940527 0.0573418 0.0
-0.2059102 0.0462481 0.0
-0.2134561 0.0325980 0.0
-0.2173631 0.0172514 0.0
-0.2179860 0.0007993 0.0
-0.2154711 -0.0163045 0.0
-0.2096591 -0.0335726 0.0
-0.2001665 -0.0502619 0.0
-0.1863175 -0.0651150 0.0
-0.1672847 -0.0761573 0.0
-0.1423006 -0.0806823 0.0
-0.1112723 -0.0757724 0.0
-0.0757696 -0.0597407 0.0
-0.0401689 -0.0346053 0.0
-0.0118629 -0.0082031 0.0
0.0025598 0.0097257 0.0
0.0051643 0.0164191 0.0
0.0025966 0.0141212 0.0
0.0000000 0.0000000 0.0
0.0000000 0.0000000 0.0
0.0038906 -0.0118275 0.0
0.0040746 -0.0075698 0.0
-0.0018205 0.0031913 0.0
-0.0142910 0.0157851 0.0
-0.0356281 0.0320138 0.0
-0.0667209 0.0528363 0.0
-0.1029585 0.0734577 0.0
-0.1372114 0.0874589 0.0
-0.1654977 0.0925848 0.0
-0.1870860 0.0899843 0.0
-0.2023559 0.0814752 0.0
-0.2125342 0.0688951 0.0
-0.2188487 0.0536736 0.0
-0.2223700 0.0367803 0.0
-0.2238803 0.0188178 0.0
-0.2238582 0.0000887 0.0
-0.2225526 -0.0192427 0.0
-0.2199346 -0.0390247 0.0
-0.2156763 -0.0589007 0.0
-0.2090000 -0.0780557 0.0
-0.1985380 -0.0948601 0.0
-0.1823220 -0.1065718 0.0
-0.1580923 -0.1092886 0.0
-0.1244499 -0.0988084 0.0
-0.0828930 -0.0730347 0.0
-0.0404593 -0.0364807 0.0
-0.0098306 -0.0033152 0.0
0.0009435 0.0140530 0.0
0.0012499 0.0152551 0.0
0.0000000 0.0000000 0.0
0.0000000 0.0000000 0.0
0.0021657 -0.0127200 0.0
-0.0025988 -0.0021932 0.0
-0.0152070 0.0160745 0.0
-0.0362921 0.0377049 0.0
-0.0666801 0.0634023 0.0
-0.1026537 0.0893392 0.0
-0.1367040 0.1080021 0.0
-0.1637089 0.1155476 0.0
-0.1829774 0.1133209 0.0
-0.1954630 0.1040382 0.0
-0.2027320 0.0902095 0.0
-0.2065581 0.0738346 0.0
-0.2081748 0.0560839 0.0
-0.2085727 0.0376295 0.0
-0.2082718 0.0187396 0.0
-0.2076547 -0.0005284 0.0
-0.2068928 -0.0202282 0.0
-0.2061210 -0.0404488 0.0
-0.2052848 -0.0611966 0.0
-0.2040926 -0.0822533 0.0
-0.2016245 -0.1028353 0.0
-0.1960379 -0.1211281 0.0
-0.1842017 -0.1336445 0.0
-0.1620885 -0.1349400 0.0
-0.1264881 -0.1185958 0.0
-0.0788483 -0.0812655 0.0
-0.0305763 -0.0316771 0.0
-0.0021669 0.0053385 0.0
0.0009536 0.0150647 0.0
0.0000000 0.0000000 0.0
0.0000000 0.0000000 0.0
-0.0018289 -0.0092286 0.0
-0.0127816 0.0098028 0.0
-0.0322083 0.0368846 0.0
-0.0599213 0.0672582 0.0
-0.0936609 0.0983754 0.0
-0.1267440 0.1228602 0.0
-0.1527382 0.1345129 0.0
-0.1700566 0.1337324 0.0
-0.1802604 0.1243389 0.0
-0.1853178 0.1097389 0.0
-0.1873852 0.0925703 0.0
-0.1879256 0.0743379 0.0
-0.1877488 0.0556881 0.0
-0.1873220 0.0368773 0.0
-0.1867572 0.0178999 0.0
-0.1861735 -0.0012903 0.0
-0.1855873 -0.0207764 0.0
-0.1851324 -0.0406327 0.0
-0.1849183 -0.0609291 0.0
-0.1850963 -0.0817160 0.0
-0.1855879 -0.1029148 0.0
-0.1857506 -0.1239947 0.0
-0.1836846 -0.1432380 0.0
-0.1754921 -0.1565219 0.0
-0.1553318 -0.1562750 0.0
-0.1177481 -0.1323925 0.0
-0.0645310 -0.0799966 0.0
-0.0139154 -0.0174769 0.0
0.0007083 0.0130883 0.0
0.0000000 0.0000000 0.0
0.0000000 0.0000000 0.0
-0.0073657 0.0000616 0.0
-0.0241207 0.0281862 0.0
-0.0483971 0.0632142 0.0
-0.0785417 0.0991575 0.0
-0.1099096 0.1302249 0.0
-0.1357288 0.1484164 0.0
-0.1525626 0.1513147 0.0
-0.1617673 0.1430698 0.0
-0.1659755 0.1285821 0.0
-0.1674449 0.1111629 0.0
-0.1679286 0.0928173 0.0
-0.1680596 0.0741982 0.0
-0.1681358 0.0554803 0.0
-0.1681653 0.0366379 0.0
-0.1681148 0.0175911 0.0
-0.1679725 -0.0016983 0.0
-0.1677309 -0.0212693 0.0
-0.1674360 -0.0411178 0.0
-0.1671549 -0.0612326 0.0
-0.1670065 -0.0815837 0.0
-0.1671594 -0.1021811 0.0
-0.1677060 -0.1230314 0.0
-0.1683321 -0.1439029 0.0
-0.1673831 -0.1632928 0.0
-0.1605764 -0.1763398 0.0
-0.1402003 -0.1720663 0.0
-0.0991400 -0.1355099 0.0
-0.0401100 -0.0599008 0.0
0.0003846 0.0011494 0.0
0.0000000 0.0000000 0.0
0.0000000 0.0000000 0.0
-0.0127966 0.0148920 0.0
-0.0335314 0.0508343 0.0
-0.0596966 0.0913057 0.0
-0.0884114 0.1287707 0.0
-0.1142671 0.1555625 0.0
-0.1322013 0.1655132 0.0
-0.1418066 0.1605514 0.0
-0.1460549 0.1471453 0.0
-0.1475799 0.1300165 0.0
-0.1481575 0.1116920 0.0
-0.1486181 0.0931850 0.0
-0.1489939 0.0745451 0.0
-0.1493614 0.0557938 0.0
-0.1496199 0.0368564 0.0
-0.1498094 0.0177071 0.0
-0.1499174 -0.0016742 0.0
-0.1499945 -0.0213129 0.0
-0.1500503 -0.0412087 0.0
-0.1501251 -0.0613586 0.0
-0.1502168 -0.0817115 0.0
-0.1503644 -0.1022153 0.0
-0.1506108 -0.1228219 0.0
-0.1510386 -0.1435609 0.0
-0.1514256 -0.1642776 0.0
-0.1503323 -0.1834577 0.0
-0.1423369 -0.1938288 0.0
-0.1188168 -0.1800869 0.0
-0.0696285 -0.1170016 0.0
-0.0101130 -0.0270217 0.0
0.0000000 0.0000000 0.0
0.0000000 0.0000000 0.0
-0.0165793 0.0335930 0.0
-0.0389429 0.0750861 0.0
-0.0643436 0.1180942 0.0
-0.0893172 0.1537281 0.0
-0.1089487 0.1740149 0.0
-0.1204316 0.1759559 0.0
-0.1254935 0.1651683 0.0
-0.1274199 0.1488431 0.0
-0.1281751 0.1306847 0.0
-0.1287641 0.1122011 0.0
-0.1293400 0.0936537 0.0
-0.1298288 0.0749416 0.0
-0.1302876 0.0561064 0.0
-0.1306513 0.0370859 0.0
-0.1309920 0.0178887 0.0
-0.1312868 -0.0015132 0.0
-0.1315891 -0.0211365 0.0
-0.1318873 -0.0409871 0.0
-0.1322154 -0.0610661 0.0
-0.1325571 -0.0813445 0.0
-0.1329163 -0.1017870 0.0
-0.1332820 -0.1223573 0.0
-0.1336947 -0.1430881 0.0
-0.1341147 -0.1639990 0.0
-0.1347165 -0.1854285 0.0
-0.1325538 -0.2035818 0.0
-0.1220709 -0.2082183 0.0
-0.0893351 -0.1686046 0.0
-0.0326440 -0.0684792 0.0
0.0000000 0.0000000 0.0
0.0000000 0.0000000 0.0
-0.0179181 0.0538349 0.0
-0.0397480 0.0985986 0.0
-0.0625470 0.1416800 0.0
-0.0828940 0.1733758 0.0
-0.0970396 0.1866769 0.0
-0.1041314 0.1820580 0.0
-0.1068683 0.1675397 0.0
-0.1080107 0.1498268 0.0
-0.1087259 0.1313607 0.0
-0.1094534 0.1128569 0.0
-0.1101208 0.0942497 0.0
-0.1107393 0.0754927 0.0
-0.1113290 0.0566163 0.0
-0.1118623 0.0375608 0.0
-0.1123981 0.0183426 0.0
-0.1129226 -0.0010772 0.0
-0.1134758 -0.0207124 0.0
-0.1140434 -0.0405825 0.0
-0.1146332 -0.0606888 0.0
-0.1152121 -0.0810105 0.0
-0.1157361 -0.1014904 0.0
-0.1161419 -0.1220436 0.0
-0.1165033 -0.1427281 0.0
-0.1165327 -0.1632558 0.0
-0.1172641 -0.1850187 0.0
-0.1171831 -0.2064744 0.0
-0.1142836 -0.2233056 0.0
-0.0953172 -0.2064285 0.0
-0.0501020 -0.1163568 0.0
0.0000000 0.0000000 0.0
0.0000000 0.0000000 0.0
-0.0167843 0.0733410 0.0
-0.0364275 0.1197151 0.0
-0.0556019 0.1612402 0.0
-0.0714044 0.1882207 0.0
-0.0813254 0.1952523 0.0
-0.0857654 0.1857846 0.0
-0.0874961 0.1690476 0.0
-0.0884784 0.1507007 0.0
-0.0893054 0.1321274 0.0
-0.0901442 0.1135961 0.0
-0.0909013 0.0949396 0.0
-0.0916182 0.0761498 0.0
-0.0922794 0.0572293 0.0
-0.0929195 0.0381550 0.0
-0.0935865 0.0189490 0.0
-0.0942861 -0.0004356 0.0
-0.0950428 -0.0200157 0.0
-0.0958543 -0.0398297 0.0
-0.0967184 -0.0598975 0.0
-0.0976142 -0.0802416 0.0
-0.0984955 -0.1008573 0.0
-0.0991784 -0.1215901 0.0
-0.0998842 -0.1426973 0.0
-0.0997893 -0.1632382 0.0
-0.1001592 -0.1847780 0.0
-0.0999472 -0.2065623 0.0
-0.1002330 -0.2300843 0.0
-0.0904606 -0.2327862 0.0
-0.0566988 -0.1637964 0.0
0.0000000 0.0000000 0.0
0.0000000 0.0000000 0.0
-0.0136123 0.0902625 0.0
-0.0299481 0.1374162 0.0
-0.0450854 0.1766568 0.0
-0.0568158 0.1990993 0.0
-0.0636707 0.2010380 0.0
-0.0666418 0.1882287 0.0
-0.0680336 0.1702527 0.0
-0.0690679 0.1516362 0.0
-0.0700123 0.1330265 0.0
-0.0709162 0.1144528 0.0
-0.0717134 0.0957237 0.0
-0.0724639 0.0768708 0.0
-0.0731859 0.0579176 0.0
-0.0739568 0.0388679 0.0
-0.0747864 0.0197092 0.0
-0.0756838 0.0003791 0.0
-0.0766559 -0.0191442 0.0
-0.0777028 -0.0389069 0.0
-0.0788075 -0.0589289 0.0
-0.0799426 -0.0792334 0.0
-0.0811522 -0.0999262 0.0
-0.0820393 -0.1206549 0.0
-0.0831703 -0.1421172 0.0
-0.0833312 -0.1629808 0.0
-0.0838072 -0.1848607 0.0
-0.0831329 -0.2064007 0.0
-0.0840681 -0.2327922 0.0
-0.0794362 -0.2499626 0.0
-0.0560132 -0.2068175 0.0
0.0000000 0.0000000 0.0
0.0000000 0.0000000 0.0
-0.0090176 0.1032890 0.0
-0.0213509 0.1511881 0.0
-0.0323687 0.1881079 0.0
-0.0405827 0.2068060 0.0
-0.0452590 0.2050783 0.0
-0.0474339 0.1901475 0.0
-0.0487191 0.1714736 0.0
-0.0497841 0.1526794 0.0
-0.0507527 0.1339757 0.0
-0.0516455 0.1152972 0.0
-0.0524526 0.0964873 0.0
-0.0532549 0.0776222 0.0
-0.0540871 0.0587222 0.0
-0.0549983 0.0397556 0.0
-0.0559725 0.0206760 0.0
-0.0570480 0.0014338 0.0
-0.0582347 -0.0179967 0.0
-0.0595395 -0.0376781 0.0
-0.0609498 -0.0576576 0.0
-0.0623527 -0.0778968 0.0
-0.0640105 -0.0987605 0.0
-0.0651940 -0.1195720 0.0
-0.0667774 -0.1414055 0.0
-0.0672677 -0.1626013 0.0
-0.0680914 -0.1849763 0.0
-0.0672646 -0.2063014 0.0
-0.0681770 -0.2337810 0.0
-0.0661786 -0.2608411 0.0
-0.0510990 -0.2432325 0.0
0.0000000 0.0000000 0.0
0.0000000 0.0000000 0.0
-0.0036179 0.1116134 0.0
-0.0115220 0.1607673 0.0
-0.0185185 0.1958886 0.0
-0.0236558 0.2119895 0.0
-0.0266805 0.2078892 0.0
-0.0283680 0.1916889 0.0
-0.0295935 0.1726029 0.0
-0.0306428 0.1536698 0.0
-0.0315917 0.1348879 0.0
-0.0324608 0.1161527 0.0
-0.0332784 0.0973331 0.0
-0.0341147 0.0785052 0.0
-0.0349964 0.0596610 0.0
-0.0359628 0.0407533 0.0
-0.0370347 0.0217589 0.0
-0.0382734 0.0026413 0.0
-0.0396710 -0.0166527 0.0
-0.0412232 -0.0361918 0.0
-0.0429988 -0.0561157 0.0
-0.0446622 -0.0761727 0.0
-0.0468022 -0.0970850 0.0
-0.0483865 -0.1178880 0.0
-0.0505675 -0.1400435 0.0
-0.0516110 -0.1616668 0.0
-0.0531250 -0.1848638 0.0
-0.0526193 -0.2063150 0.0
-0.0536191 -0.2338783 0.0
-0.0531054 -0.2670407 0.0
-0.0447266 -0.2729960 0.0
0.0000000 0.0000000 0.0
0.0000000 0.0000000 0.0
0.0020240 0.1148110 0.0
-0.0011952 0.1660887 0.0
-0.0042787 0.2002417 0.0
-0.0066163 0.2149679 0.0
-0.0082509 0.2097905 0.0
-0.0095380 0.1930605 0.0
-0.0106565 0.1737484 0.0
-0.0116089 0.1546775 0.0
-0.0124594 0.1357937 0.0
-0.0132402 0.1169839 0.0
-0.0140075 0.0981412 0.0
-0.0148228 0.0793402 0.0
-0.0157222 0.0605704 0.0
-0.0167610 0.0417939 0.0
-0.0179767 0.0229865 0.0
-0.0194017 0.0040702 0.0
-0.0210287 -0.0150468 0.0
-0.0227958 -0.0343503 0.0
-0.0250057 -0.0542187 0.0
-0.0269970 -0.0740934 0.0
-0.0296758 -0.0950362 0.0
-0.0317376 -0.1158068 0.0
-0.0345938 -0.1381810 0.0
-0.0362905 -0.1600438 0.0
-0.0387196 -0.1839680 0.0
-0.0390174 -0.2058073 0.0
-0.0406527 -0.2332949 0.0
-0.0412335 -0.2697336 0.0
-0.0382295 -0.2963379 0.0
0.0000000 0.0000000 0.0
0.0000000 0.0000000 0.0
0.0073824 0.1128086 0.0
0.0090305 0.1670700 0.0
0.0097745 0.2013096 0.0
0.0101568 0.2159617 0.0
0.0099000 0.2108110 0.0
0.0090607 0.1940946 0.0
0.0081053 0.1746737 0.0
0.0072908 0.1554726 0.0
0.0065706 0.1365192 0.0
0.0059008 0.1177008 0.0
0.0052088 0.0989157 0.0
0.0044394 0.0802200 0.0
0.0035503 0.0615992 0.0
0.0024821 0.0430078 0.0
0.0012019 0.0243996 0.0
-0.0003106 0.0056933 0.0
-0.0021776 -0.0132586 0.0
-0.0041247 -0.0322148 0.0
-0.0067798 -0.0519144 0.0
-0.0091562 -0.0715026 0.0
-0.0124529 -0.0923445 0.0
-0.0151078 -0.1129700 0.0
-0.0188026 -0.1354905 0.0
-0.0213279 -0.1575410 0.0
-0.0248888 -0.1821370 0.0
-0.0263134 -0.2043819 0.0
-0.0291283 -0.2316621 0.0
-0.0308692 -0.2694639 0.0
-0.0323589 -0.3142296 0.0
0.0000000 0.0000000 0.0
0.0000000 0.0000000 0.0
0.0119275 0.1057805 0.0
0.0185512 0.1636967 0.0
0.0231642 0.1991154 0.0
0.0263406 0.2148424 0.0
0.0276407 0.2108866 0.0
0.0274321 0.1948553 0.0
0.0267452 0.1755184 0.0
0.0261413 0.1562122 0.0
0.0256272 0.1371837 0.0
0.0251488 0.1183458 0.0
0.0246136 0.0996026 0.0
0.0239626 0.0809987 0.0
0.0231451 0.0625277 0.0
0.0220943 0.0441423 0.0
0.0207533 0.0257792 0.0
0.0191723 0.0074497 0.0
0.0169655 -0.0112327 0.0
0.0147954 -0.0297481 0.0
0.0116860 -0.0491871 0.0
0.0088949 -0.0684203 0.0
0.0049216 -0.0890846 0.0
0.0016057 -0.1094571 0.0
-0.0030455 -0.1319609 0.0
-0.0065303 -0.1539576 0.0
-0.0114326 -0.1789825 0.0
-0.0142604 -0.2015677 0.0
-0.0187568 -0.2287391 0.0
-0.0218373 -0.2665030 0.0
-0.0272658 -0.3272071 0.0
0.0000000 0.0000000 0.0
0.0000000 0.0000000 0.0
0.0150887 0.0942574 0.0
0.0267180 0.1558334 0.0
0.0353330 0.1935202 0.0
0.0415813 0.2114851 0.0
0.0448022 0.2097195 0.0
0.0455041 0.1949900 0.0
0.0452051 0.1759646 0.0
0.0448400 0.1565906 0.0
0.0445517 0.1375117 0.0
0.0442954 0.1187144 0.0
0.0439635 0.1001019 0.0
0.0434818 0.0816885 0.0
0.0427904 0.0634676 0.0
0.0418261 0.0453995 0.0
0.0404168 0.0273216 0.0
0.0388704 0.0094812 0.0
0.0364224 -0.0088817 0.0
0.0341079 -0.0269352 0.0
0.0305553 -0.0460138 0.0
0.0273202 -0.0647382 0.0
0.0225896 -0.0850553 0.0
0.0185314 -0.1050029 0.0
0.0127811 -0.1273545 0.0
0.0082109 -0.1491539 0.0
0.0017766 -0.1744069 0.0
-0.0026359 -0.1970577 0.0
-0.0092375 -0.2240852 0.0
-0.0139026 -0.2609550 0.0
-0.0229772 -0.3360669 0.0
0.0000000 0.0000000 0.0
0.0000000 0.0000000 0.0
0.0162793 0.0790625 0.0
0.0327455 0.1434523 0.0
0.0456518 0.1842522 0.0
0.0553353 0.2053732 0.0
0.0610457 0.2069638 0.0
0.0631771 0.1944524 0.0
0.0635535 0.1761824 0.0
0.0635691 0.1568656 0.0
0.0636083 0.1377283 0.0
0.0636795 0.1189339 0.0
0.0636592 0.1004162 0.0
0.0634457 0.0821717 0.0
0.0629456 0.0641834 0.0
0.0622029 0.0465160 0.0
0.0607338 0.0287350 0.0
0.0592531 0.0114441 0.0
0.0565630 -0.0064702 0.0
0.0540528 -0.0238810 0.0
0.0499561 -0.0423995 0.0
0.0462528 -0.0604546 0.0
0.0407173 -0.0802959 0.0
0.0358867 -0.0996486 0.0
0.0289174 -0.1216404 0.0
0.0231609 -0.1429532 0.0
0.0149812 -0.1681357 0.0
0.0088182 -0.1905536 0.0
-0.0002762 -0.2174724 0.0
-0.0067345 -0.2527634 0.0
-0.0193780 -0.3411097 0.0
0.0000000 0.0000000 0.0
0.0000000 0.0000000 0.0
0.0150589 0.0615119 0.0
0.0358208 0.1264609 0.0
0.0532806 0.1709303 0.0
0.0669367 0.1960913 0.0
0.0757802 0.2018777 0.0
0.0799801 0.1924822 0.0
0.0814436 0.1755726 0.0
0.0819934 0.1565358 0.0
0.0824071 0.1374013 0.0
0.0828428 0.1186636 0.0
0.0832036 0.1003356 0.0
0.0833702 0.0824020 0.0
0.0830834 0.0647104 0.0
0.0827015 0.0476113 0.0
0.0812588 0.0302714 0.0
0.0799270 0.0136520 0.0
0.0770485 -0.0036815 0.0
0.0744469 -0.0203283 0.0
0.0698913 -0.0382138 0.0
0.0658427 -0.0554994 0.0
0.0594657 -0.0746893 0.0
0.0538362 -0.0932031 0.0
0.0455265 -0.1146286 0.0
0.0385289 -0.1352176 0.0
0.0283968 -0.1600642 0.0
0.0203518 -0.1818003 0.0
0.0083570 -0.2085325 0.0
-0.0000830 -0.2418533 0.0
-0.0163950 -0.3428014 0.0
0.0000000 0.0000000 0.0
0.0000000 0.0000000 0.0
0.0114500 0.0432417 0.0
0.0352652 0.1052306 0.0
0.0573565 0.1531362 0.0
0.0753616 0.1828736 0.0
0.0881805 0.1939204 0.0
0.0954265 0.1887890 0.0
0.0987856 0.1741691 0.0
0.1004021 0.1559021 0.0
0.1014861 0.1368789 0.0
0.1024680 0.1181374 0.0
0.1033191 0.0998888 0.0
0.1040785 0.0822919 0.0
0.1040676 0.0648521 0.0
0.1041511 0.0483405 0.0
0.1027965 0.0315095 0.0
0.1016983 0.0156544 0.0
0.0986324 -0.0009901 0.0
0.0959933 -0.0167237 0.0
0.0909052 -0.0337953 0.0
0.0864647 -0.0500289 0.0
0.0790797 -0.0682894 0.0
0.0726694 -0.0857094 0.0
0.0629166 -0.1063331 0.0
0.0546478 -0.1258235 0.0
0.0422922 -0.1499585 0.0
0.0322374 -0.1705138 0.0
0.0168740 -0.1970377 0.0
0.0063386 -0.2280113 0.0
-0.0139470 -0.3411927 0.0
0.0000000 0.0000000 0.0
0.0000000 0.0000000 0.0
0.0066640 0.0262468 0.0
0.0309484 0.0805543 0.0
0.0569896 0.1308339 0.0
0.0795577 0.1652673 0.0
0.0967802 0.1818128 0.0
0.1079924 0.1818771 0.0
0.1142343 0.1705970 0.0
0.1176176 0.1538353 0.0
0.1197915 0.1353354 0.0
0.1215749 0.1168305 0.0
0.1229708 0.0987251 0.0
0.1245168 0.0816536 0.0
0.1249087 0.0646378 0.0
0.1256291 0.0488823 0.0
0.1244574 0.0327242 0.0
0.1237693 0.0178162 0.0
0.1205711 0.0020235 0.0
0.1180634 -0.0126011 0.0
0.1124696 -0.0286852 0.0
0.1078375 -0.0436740 0.0
0.0995288 -0.0608939 0.0
0.0925828 -0.0770399 0.0
0.0812941 -0.0966070 0.0
0.0717915 -0.1145933 0.0
0.0568995 -0.1376538 0.0
0.0447517 -0.1563821 0.0
0.0254105 -0.1826337 0.0
0.0127932 -0.2110323 0.0
-0.0120095 -0.3364628 0.0
0.0000000 0.0000000 0.0
0.0000000 0.0000000 0.0
0.0029947 0.0122934 0.0
0.0236840 0.0549050 0.0
0.0516955 0.1045269 0.0
0.0782277 0.1430830 0.0
0.1003864 0.1654858 0.0
0.1165229 0.1713349 0.0
0.1270981 0.1645439 0.0
0.1337104 0.1503448 0.0
0.1380097 0.1329216 0.0
0.1414019 0.1149582 0.0
0.1436517 0.0969469 0.0
0.1462362 0.0803539 0.0
0.1471039 0.0637397 0.0
0.1486242 0.0487919 0.0
0.1476249 0.0333693 0.0
0.1475026 0.0195407 0.0
0.1441227 0.0047157 0.0
0.1419088 -0.0086223 0.0
0.1357229 -0.0235693 0.0
0.1310672 -0.0370881 0.0
0.1216578 -0.0530347 0.0
0.1142288 -0.0674747 0.0
0.1010190 -0.0855418 0.0
0.0903372 -0.1014289 0.0
0.0724174 -0.1229187 0.0
0.0581929 -0.1390249 0.0
0.0340719 -0.1650792 0.0
0.0196912 -0.1905913 0.0
-0.0105547 -0.3283994 0.0
0.0000000 0.0000000 0.0
0.0000000 0.0000000 0.0
0.0017718 0.0025628 0.0
0.0155805 0.0318535 0.0
0.0417019 0.0762902 0.0
0.0703486 0.1165765 0.0
0.0963207 0.1435175 0.0
0.1177374 0.1551654 0.0
0.1335869 0.1534095 0.0
0.1448865 0.1429238 0.0
0.1526783 0.1276439 0.0
0.1589862 0.1111885 0.0
0.1629137 0.0938908 0.0
0.1672187 0.0782013 0.0
0.1688407 0.0622498 0.0
0.1715601 0.0483614 0.0
0.1707882 0.0338458 0.0
0.1715623 0.0213183 0.0
0.1679665 0.0076173 0.0
0.1663916 -0.0042013 0.0
0.1595184 -0.0178436 0.0
0.1552223 -0.0296088 0.0
0.1445296 -0.0440556 0.0
0.1370597 -0.0564011 0.0
0.1216840 -0.0727154 0.0
0.1103611 -0.0859917 0.0
0.0887864 -0.1055094 0.0
0.0728876 -0.1180365 0.0
0.0428867 -0.1441321 0.0
0.0277145 -0.1664057 0.0
-0.0095148 -0.3167716 0.0
0.0000000 0.0000000 0.0
0.0000000 0.0000000 0.0
0.0030983 -0.0032871 0.0
0.0104778 0.0149748 0.0
0.0292986 0.0497588 0.0
0.0563549 0.0884642 0.0
0.0850048 0.1180969 0.0
0.1110678 0.1340687 0.0
0.1332455 0.1373949 0.0
0.1509752 0.1312534 0.0
0.1638753 0.1188219 0.0
0.1750103 0.1047228 0.0
0.1817963 0.0887144 0.0
0.1891092 0.0744269 0.0
0.1919293 0.0593983 0.0
0.1965985 0.0468444 0.0
0.1960099 0.0333672 0.0
0.1981982 0.0223624 0.0
0.1940674 0.0098864 0.0
0.1936054 -0.0001742 0.0
0.1855265 -0.0124001 0.0
0.1821011 -0.0220993 0.0
0.1693795 -0.0348721 0.0
0.1624559 -0.0446291 0.0
0.1438182 -0.0588433 0.0
0.1324973 -0.0685312 0.0