# vtk DataFile Version 2.0
Lid Driven Cavity Flow
ASCII
DATASET STRUCTURED_GRID
DIMENSIONS 181 181 1
POINTS 32761 float
0.0000000 0.0000000 0.0
0.0055556 0.0000000 0.0
0.0111111 0.0000000 0.0
0.0166667 0.0000000 0.0
0.0222222 0.0000000 0.0
0.0277778 0.0000000 0.0
0.0333333 0.0000000 0.0
0.0388889 0.0000000 0.0
0.0444444 0.0000000 0.0
0.0500000 0.0000000 0.0
0.0555556 0.0000000 0.0
0.0611111 0.0000000 0.0
0.0666667 0.0000000 0.0
0.0722222 0.0000000 0.0
0.0777778 0.0000000 0.0
0.0833333 0.0000000 0.0
0.0888889 0.0000000 0.0
0.0944444 0.0000000 0.0
0.1000000 0.0000000 0.0
0.1055556 0.0000000 0.0
0.1111111 0.0000000 0.0
0.1166667 0.0000000 0.0
0.1222222 0.0000000 0.0
0.1277778 0.0000000 0.0
0.1333333 0.0000000 0.0
0.1388889 0.0000000 0.0
0.1444444 0.0000000 0.0
0.1500000 0.0000000 0.0
0.1555556 0.0000000 0.0
0.1611111 0.0000000 0.0
0.1666667 0.0000000 0.0
0.1722222 0.0000000 0.0
0.1777778 0.0000000 0.0
0.1833333 0.0000000 0.0
0.1888889 0.0000000 0.0
0.1944444 0.0000000 0.0
0.2000000 0.0000000 0.0
0.2055556 0.0000000 0.0
0.2111111 0.0000000 0.0
0.2166667 0.0000000 0.0
0.2222222 0.0000000 0.0
0.2277778 0.0000000 0.0
0.2333333 0.0000000 0.0
0.2388889 0.0000000 0.0
0.2444444 0.0000000 0.0
0.2500000 0.0000000 0.0
0.2555556 0.0000000 0.0
0.2611111 0.0000000 0.0
0.2666667 0.0000000 0.0
0.2722222 0.0000000 0.0
0.2777778 0.0000000 0.0
0.2833333 0.0000000 0.0
0.2888889 0.0000000 0.0
0.2944444 0.0000000 0.0
0.3000000 0.0000000 0.0
0.3055556 0.0000000 0.0
0.3111111 0.0000000 0.0
0.3166667 0.0000000 0.0
0.3222222 0.0000000 0.0
0.3277778 0.0000000 0.0
0.3333333 0.0000000 0.0
0.3388889 0.0000000 0.0
0.3444444 0.0000000 0.0
0.3500000 0.0000000 0.0
0.3555556 0.0000000 0.0
0.3611111 0.0000000 0.0
0.3666667 0.0000000 0.0
0.3722222 0.0000000 0.0
0.3777778 0.0000000 0.0
0.3833333 0.0000000 0.0
0.3888889 0.0000000 0.0
0.3944444 0.0000000 0.0
0.4000000 0.0000000 0.0
0.4055556 0.0000000 0.0
0.4111111 0.0000000 0.0
0.4166667 0.0000000 0.0
0.4222222 0.0000000 0.0
0.4277778 0.0000000 0.0
0.4333333 0.0000000 0.0
0.4388889 0.0000000 0.0
0.4444444 0.0000000 0.0
0.4500000 0.0000000 0.0
0.4555556 0.0000000 0.0
0.4611111 0.0000000 0.0
0.4666667 0.0000000 0.0
0.4722222 0.0000000 0.0
0.4777778 0.0000000 0.0
0.4833333 0.0000000 0.0
0.4888889 0.0000000 0.0
0.4944444 0.0000000 0.0
0.5000000 0.0000000 0.0
0.5055556 0.0000000 0.0
0.5111111 0.0000000 0.0
0.5166667 0.0000000 0.0
0.5222222 0.0000000 0.0
0.5277778 0.0000000 0.0
0.5333333 0.0000000 0.0
0.5388889 0.0000000 0.0
0.5444444 0.0000000 0.0
0.5500000 0.0000000 0.0
0.5555556 0.0000000 0.0
0.5611111 0.0000000 0.0
0.5666667 0.0000000 0.0
0.5722222 0.0000000 0.0
0.5777778 0.0000000 0.0
0.5833333 0.0000000 0.0
0.5888889 0.0000000 0.0
0.5944444 0.0000000 0.0
0.6000000 0.0000000 0.0
0.6055556 0.0000000 0.0
0.6111111 0.0000000 0.0
0.6166667 0.0000000 0.0
0.6222222 0.0000000 0.0
0.6277778 0.0000000 0.0
0.6333333 0.0000000 0.0
0.6388889 0.0000000 0.0
0.6444444 0.0000000 0.0
0.6500000 0.0000000 0.0
0.6555556 0.0000000 0.0
0.6611111 0.0000000 0.0
0.6666667 0.0000000 0.0
0.6722222 0.0000000 0.0
0.6777778 0.0000000 0.0
0.6833333 0.0000000 0.0
0.6888889 0.0000000 0.0
0.6944444 0.0000000 0.0
0.7000000 0.0000000 0.0
0.7055556 0.0000000 0.0
0.7111111 0.0000000 0.0
0.7166667 0.0000000 0.0
0.7222222 0.0000000 0.0
0.7277778 0.0000000 0.0
0.7333333 0.0000000 0.0
0.7388889 0.0000000 0.0
0.7444444 0.0000000 0.0
0.7500000 0.0000000 0.0
0.7555556 0.0000000 0.0
0.7611111 0.0000000 0.0
0.7666667 0.0000000 0.0
0.7722222 0.0000000 0.0
0.7777778 0.0000000 0.0
0.7833333 0.0000000 0.0
0.7888889 0.0000000 0.0
0.7944444 0.0000000 0.0
0.8000000 0.0000000 0.0
0.8055556 0.0000000 0.0
0.8111111 0.0000000 0.0
0.8166667 0.0000000 0.0
0.8222222 0.0000000 0.0
0.8277778 0.0000000 0.0
0.8333333 0.0000000 0.0
0.8388889 0.0000000 0.0
0.8444444 0.0000000 0.0
0.8500000 0.0000000 0.0
0.8555556 0.0000000 0.0
0.8611111 0.0000000 0.0
0.8666667 0.0000000 0.0
0.8722222 0.0000000 0.0
0.8777778 0.0000000 0.0
0.8833333 0.0000000 0.0
0.8888889 0.0000000 0.0
0.8944444 0.0000000 0.0
0.9000000 0.0000000 0.0
0.9055556 0.0000000 0.0
0.9111111 0.0000000 0.0
0.9166667 0.0000000 0.0
0.9222222 0.0000000 0.0
0.9277778 0.0000000 0.0
0.9333333 0.0000000 0.0
0.9388889 0.0000000 0.0
0.9444444 0.0000000 0.0
0.9500000 0.0000000 0.0
0.9555556 0.0000000 0.0
0.9611111 0.0000000 0.0
0.9666667 0.0000000 0.0
0.9722222 0.0000000 0.0
0.9777778 0.0000000 0.0
0.9833333 0.0000000 0.0
0.9888889 0.0000000 0.0
0.9944444 0.0000000 0.0
1.0000000 0.0000000 0.0
0.0000000 0.0055556 0.0
0.0055556 0.0055556 0.0
0.0111111 0.0055556 0.0
0.0166667 0.0055556 0.0
0.0222222 0.0055556 0.0
0.0277778 0.0055556 0.0
0.0333333 0.0055556 0.0
0.0388889 0.0055556 0.0
0.0444444 0.0055556 0.0
0.0500000 0.0055556 0.0
0.0555556 0.0055556 0.0
0.0611111 0.0055556 0.0
0.0666667 0.0055556 0.0
0.0722222 0.0055556 0.0
0.0777778 0.0055556 0.0
0.0833333 0.0055556 0.0
0.0888889 0.0055556 0.0
0.0944444 0.0055556 0.0
0.1000000 0.0055556 0.0
0.1055556 0.0055556 0.0
0.1111111 0.0055556 0.0
0.1166667 0.0055556 0.0
0.1222222 0.0055556 0.0
0.1277778 0.0055556 0.0
0.1333333 0.0055556 0.0
0.1388889 0.0055556 0.0
0.1444444 0.0055556 0.0
0.1500000 0.0055556 0.0
0.1555556 0.0055556 0.0
0.1611111 0.0055556 0.0
0.1666667 0.0055556 0.0
0.1722222 0.0055556 0.0
0.1777778 0.0055556 0.0
0.1833333 0.0055556 0.0
0.1888889 0.0055556 0.0
0.1944444 0.0055556 0.0
0.2000000 0.0055556 0.0
0.2055556 0.0055556 0.0
0.2111111 0.0055556 0.0
0.2166667 0.0055556 0.0
0.2222222 0.0055556 0.0
0.2277778 0.0055556 0.0
0.2333333 0.0055556 0.0
0.2388889 0.0055556 0.0
0.2444444 0.0055556 0.0
0.2500000 0.0055556 0.0
0.2555556 0.0055556 0.0
0.2611111 0.0055556 0.0
0.2666667 0.0055556 0.0
0.2722222 0.0055556 0.0
0.2777778 0.0055556 0.0
0.2833333 0.0055556 0.0
0.2888889 0.0055556 0.0
0.2944444 0.0055556 0.0
0.3000000 0.0055556 0.0
0.3055556 0.0055556 0.0
0.3111111 0.0055556 0.0
0.3166667 0.0055556 0.0
0.3222222 0.0055556 0.0
0.3277778 0.0055556 0.0
0.3333333 0.0055556 0.0
0.3388889 0.0055556 0.0
0.3444444 0.0055556 0.0
0.3500000 0.0055556 0.0
0.3555556 0.0055556 0.0
0.3611111 0.0055556 0.0
0.3666667 0.0055556 0.0
0.3722222 0.0055556 0.0
0.3777778 0.0055556 0.0
0.3833333 0.0055556 0.0
0.3888889 0.0055556 0.0
0.3944444 0.0055556 0.0
0.4000000 0.0055556 0.0
0.4055556 0.0055556 0.0
0.4111111 0.0055556 0.0
0.4166667 0.0055556 0.0
0.4222222 0.0055556 0.0
0.4277778 0.0055556 0.0
0.4333333 0.0055556 0.0
0.4388889 0.0055556 0.0
0.4444444 0.0055556 0.0
0.4500000 0.0055556 0.0
0.4555556 0.0055556 0.0
0.4611111 0.0055556 0.0
0.4666667 0.0055556 0.0
0.4722222 0.0055556 0.0
0.4777778 0.0055556 0.0
0.4833333 0.0055556 0.0
0.4888889 0.0055556 0.0
0.4944444 0.0055556 0.0
0.5000000 0.0055556 0.0
0.5055556 0.0055556 0.0
0.5111111 0.0055556 0.0
0.5166667 0.0055556 0.0
0.5222222 0.0055556 0.0
0.5277778 0.0055556 0.0
0.5333333 0.0055556 0.0
0.5388889 0.0055556 0.0
0.5444444 0.0055556 0.0
0.5500000 0.0055556 0.0
0.5555556 0.0055556 0.0
0.5611111 0.0055556 0.0
0.5666667 0.0055556 0.0
0.5722222 0.0055556 0.0
0.5777778 0.0055556 0.0
0.5833333 0.0055556 0.0
0.5888889 0.0055556 0.0
0.5944444 0.0055556 0.0
0.6000000 0.0055556 0.0
0.6055556 0.0055556 0.0
0.6111111 0.0055556 0.0
0.6166667 0.0055556 0.0
0.6222222 0.0055556 0.0
0.6277778 0.0055556 0.0
0.6333333 0.0055556 0.0
0.6388889 0.0055556 0.0
0.6444444 0.0055556 0.0
0.6500000 0.0055556 0.0
0.6555556 0.0055556 0.0
0.6611111 0.0055556 0.0
0.6666667 0.0055556 0.0
0.6722222 0.0055556 0.0
0.6777778 0.0055556 0.0
0.6833333 0.0055556 0.0
0.6888889 0.0055556 0.0
0.6944444 0.0055556 0.0
0.7000000 0.0055556 0.0
0.7055556 0.0055556 0.0
0.7111111 0.0055556 0.0
0.7166667 0.0055556 0.0
0.7222222 0.0055556 0.0
0.7277778 0.0055556 0.0
0.7333333 0.0055556 0.0
0.7388889 0.0055556 0.0
0.7444444 0.0055556 0.0
0.7500000 0.0055556 0.0
0.7555556 0.0055556 0.0
0.7611111 0.0055556 0.0
0.7666667 0.0055556 0.0
0.7722222 0.0055556 0.0
0.7777778 0.0055556 0.0
0.7833333 0.0055556 0.0
0.7888889 0.0055556 0.0
0.7944444 0.0055556 0.0
0.8000000 0.0055556 0.0
0.8055556 0.0055556 0.0
0.8111111 0.0055556 0.0
0.8166667 0.0055556 0.0
0.8222222 0.0055556 0.0
0.8277778 0.0055556 0.0
0.8333333 0.0055556 0.0
0.8388889 0.0055556 0.0
0.8444444 0.0055556 0.0
0.8500000 0.0055556 0.0
0.8555556 0.0055556 0.0
0.8611111 0.0055556 0.0
0.8666667 0.0055556 0.0
0.8722222 0.0055556 0.0
0.8777778 0.0055556 0.0
0.8833333 0.0055556 0.0
0.8888889 0.0055556 0.0
0.8944444 0.0055556 0.0
0.9000000 0.0055556 0.0
0.9055556 0.0055556 0.0
0.9111111 0.0055556 0.0
0.9166667 0.0055556 0.0
0.9222222 0.0055556 0.0
0.9277778 0.0055556 0.0
0.9333333 0.0055556 0.0
0.9388889 0.0055556 0.0
0.9444444 0.0055556 0.0
0.9500000 0.0055556 0.0
0.9555556 0.0055556 0.0
0.9611111 0.0055556 0.0
0.9666667 0.0055556 0.0
0.9722222 0.0055556 0.0
0.9777778 0.0055556 0.0
0.9833333 0.0055556 0.0
0.9888889 0.0055556 0.0
0.9944444 0.0055556 0.0
1.0000000 0.0055556 0.0
0.0000000 0.0111111 0.0
0.0055556 0.0111111 0.0
0.0111111 0.0111111 0.0
0.0166667 0.0111111 0.0
0.0222222 0.0111111 0.0
0.0277778 0.0111111 0.0
0.0333333 0.0111111 0.0
0.0388889 0.0111111 0.0
0.0444444 0.0111111 0.0
0.0500000 0.0111111 0.0
0.0555556 0.0111111 0.0
0.0611111 0.0111111 0.0
0.0666667 0.0111111 0.0
0.0722222 0.0111111 0.0
0.0777778 0.0111111 0.0
0.0833333 0.0111111 0.0
0.0888889 0.0111111 0.0
0.0944444 0.0111111 0.0
0.1000000 0.0111111 0.0
0.1055556 0.0111111 0.0
0.1111111 0.0111111 0.0
0.1166667 0.0111111 0.0
0.1222222 0.0111111 0.0
0.1277778 0.0111111 0.0
0.1333333 0.0111111 0.0
0.1388889 0.0111111 0.0
0.1444444 0.0111111 0.0
0.1500000 0.0111111 0.0
0.1555556 0.0111111 0.0
0.1611111 0.0111111 0.0
0.1666667 0.0111111 0.0
0.1722222 0.0111111 0.0
0.1777778 0.0111111 0.0
0.1833333 0.0111111 0.0
0.1888889 0.0111111 0.0
0.1944444 0.0111111 0.0
0.2000000 0.0111111 0.0
0.2055556 0.0111111 0.0
0.2111111 0.0111111 0.0
0.2166667 0.0111111 0.0
0.2222222 0.0111111 0.0
0.2277778 0.0111111 0.0
0.2333333 0.0111111 0.0
0.2388889 0.0111111 0.0
0.2444444 0.0111111 0.0
0.2500000 0.0111111 0.0
0.2555556 0.0111111 0.0
0.2611111 0.0111111 0.0
0.2666667 0.0111111 0.0
[...]
POINT_DATA 32761
VECTORS velocity float
0.0000000 0.0000000 0.0
0.0000000 0.0000000 0.0
0.0000000 0.0000000 0.0
0.0000000 0.0000000 0.0
0.0000000 0.0000000 0.0
0.0000000 0.0000000 0.0
0.0000000 0.0000000 0.0
0.0000000 0.0000000 0.0
0.0000000 0.0000000 0.0
0.0000000 0.0000000 0.0
0.0000000 0.0000000 0.0
0.0000000 0.0000000 0.0
0.0000000 0.0000000 0.0
0.0000000 0.0000000 0.0
0.0000000 0.0000000 0.0
0.0000000 0.0000000 0.0
0.0000000 0.0000000 0.0
0.0000000 0.0000000 0.0
0.0000000 0.0000000 0.0
0.0000000 0.0000000 0.0
0.0000000 0.0000000 0.0
0.0000000 0.0000000 0.0
0.0000000 0.0000000 0.0
0.0000000 0.0000000 0.0
0.0000000 0.0000000 0.0
0.0000000 0.0000000 0.0
0.0000000 0.0000000 0.0
0.0000000 0.0000000 0.0
0.0000000 0.0000000 0.0
0.0000000 0.0000000 0.0
0.0000000 0.0000000 0.0
0.0000000 0.0000000 0.0
0.0000000 0.0000000 0.0
0.0000000 0.0000000 0.0
0.0000000 0.0000000 0.0
0.0000000 0.0000000 0.0
0.0000000 0.0000000 0.0
0.0000000 0.0000000 0.0
0.0000000 0.0000000 0.0
0.0000000 0.0000000 0.0
0.0000000 0.0000000 0.0
0.0000000 0.0000000 0.0
0.0000000 0.0000000 0.0
0.0000000 0.0000000 0.0
0.0000000 0.0000000 0.0
0.0000000 0.0000000 0.0
0.0000000 0.0000000 0.0
0.0000000 0.0000000 0.0
0.0000000 0.0000000 0.0
0.0000000 0.0000000 0.0
0.0000000 0.0000000 0.0
0.0000000 0.0000000 0.0
0.0000000 0.0000000 0.0
0.0000000 0.0000000 0.0
0.0000000 0.0000000 0.0
0.0000000 0.0000000 0.0
0.0000000 0.0000000 0.0
0.0000000 0.0000000 0.0
0.0000000 0.0000000 0.0
0.0000000 0.0000000 0.0
0.0000000 0.0000000 0.0
0.0000000 0.0000000 0.0
0.0000000 0.0000000 0.0
0.0000000 0.0000000 0.0
0.0000000 0.0000000 0.0
0.0000000 0.0000000 0.0
0.0000000 0.0000000 0.0
0.0000000 0.0000000 0.0
0.0000000 0.0000000 0.0
0.0000000 0.0000000 0.0
0.0000000 0.0000000 0.0
0.0000000 0.0000000 0.0
0.0000000 0.0000000 0.0
0.0000000 0.0000000 0.0
0.0000000 0.0000000 0.0
0.0000000 0.0000000 0.0
0.0000000 0.0000000 0.0
0.0000000 0.0000000 0.0
0.0000000 0.0000000 0.0
0.0000000 0.0000000 0.0
0.0000000 0.0000000 0.0
0.0000000 0.0000000 0.0
0.0000000 0.0000000 0.0
0.0000000 0.0000000 0.0
0.0000000 0.0000000 0.0
0.0000000 0.0000000 0.0
0.0000000 0.0000000 0.0
0.0000000 0.0000000 0.0
0.0000000 0.0000000 0.0
0.0000000 0.0000000 0.0
0.0000000 0.0000000 0.0
0.0000000 0.0000000 0.0
0.0000000 0.0000000 0.0
0.0000000 0.0000000 0.0
0.0000000 0.0000000 0.0
0.0000000 0.0000000 0.0
0.0000000 0.0000000 0.0
0.0000000 0.0000000 0.0
0.0000000 0.0000000 0.0
0.0000000 0.0000000 0.0
0.0000000 0.0000000 0.0
0.0000000 0.0000000 0.0
0.0000000 0.0000000 0.0
0.0000000 0.0000000 0.0
0.0000000 0.0000000 0.0
0.0000000 0.0000000 0.0
0.0000000 0.0000000 0.0
0.0000000 0.0000000 0.0
0.0000000 0.0000000 0.0
0.0000000 0.0000000 0.0
0.0000000 0.0000000 0.0
0.0000000 0.0000000 0.0
0.0000000 0.0000000 0.0
0.0000000 0.0000000 0.0
0.0000000 0.0000000 0.0
0.0000000 0.0000000 0.0
0.0000000 0.0000000 0.0
0.0000000 0.0000000 0.0
0.0000000 0.0000000 0.0
0.0000000 0.0000000 0.0
0.0000000 0.0000000 0.0
0.0000000 0.0000000 0.0
0.0000000 0.0000000 0.0
0.0000000 0.0000000 0.0
0.0000000 0.0000000 0.0
0.0000000 0.0000000 0.0
0.0000000 0.0000000 0.0
0.0000000 0.0000000 0.0
0.0000000 0.0000000 0.0
0.0000000 0.0000000 0.0
0.0000000 0.0000000 0.0
0.0000000 0.0000000 0.0
0.0000000 0.0000000 0.0
0.0000000 0.0000000 0.0
0.0000000 0.0000000 0.0
0.0000000 0.0000000 0.0
0.0000000 0.0000000 0.0
0.0000000 0.0000000 0.0
0.0000000 0.0000000 0.0
0.0000000 0.0000000 0.0
0.0000000 0.0000000 0.0
0.0000000 0.0000000 0.0
0.0000000 0.0000000 0.0
0.0000000 0.0000000 0.0
0.0000000 0.0000000 0.0
0.0000000 0.0000000 0.0
0.0000000 0.0000000 0.0
0.0000000 0.0000000 0.0
0.0000000 0.0000000 0.0
0.0000000 0.0000000 0.0
0.0000000 0.0000000 0.0
0.0000000 0.0000000 0.0
0.0000000 0.0000000 0.0
0.0000000 0.0000000 0.0
0.0000000 0.0000000 0.0
0.0000000 0.0000000 0.0
0.0000000 0.0000000 0.0
0.0000000 0.0000000 0.0
0.0000000 0.0000000 0.0
0.0000000 0.0000000 0.0
0.0000000 0.0000000 0.0
0.0000000 0.0000000 0.0
0.0000000 0.0000000 0.0
0.0000000 0.0000000 0.0
0.0000000 0.0000000 0.0
0.0000000 0.0000000 0.0
0.0000000 0.0000000 0.0
0.0000000 0.0000000 0.0
0.0000000 0.0000000 0.0
0.0000000 0.0000000 0.0
0.0000000 0.0000000 0.0
0.0000000 0.0000000 0.0
0.0000000 0.0000000 0.0
0.0000000 0.0000000 0.0
0.0000000 0.0000000 0.0
0.0000000 0.0000000 0.0
0.0000000 0.0000000 0.0
0.0000000 0.0000000 0.0
0.0000000 0.0000000 0.0
0.0000000 0.0000000 0.0
0.0000033 0.0000000 0.0
0.0000000 0.0000000 0.0
-0.0037940 -0.0037950 0.0
-0.0014858 -0.0011492 0.0
-0.0009009 -0.0005517 0.0
-0.0004975 -0.0002886 0.0
-0.0002050 -0.0001774 0.0
0.0000257 -0.0001294 0.0
0.0002220 -0.0001069 0.0
0.0003975 -0.0000947 0.0
0.0005586 -0.0000867 0.0
0.0007079 -0.0000801 0.0
0.0008461 -0.0000739 0.0
0.0009733 -0.0000677 0.0
0.0010890 -0.0000613 0.0
0.0011928 -0.0000547 0.0
0.0012842 -0.0000480 0.0
0.0013630 -0.0000412 0.0
0.0014290 -0.0000344 0.0
0.0014820 -0.0000276 0.0
0.0015224 -0.0000209 0.0
0.0015501 -0.0000144 0.0
0.0015654 -0.0000081 0.0
0.0015688 -0.0000020 0.0
0.0015604 0.0000038 0.0
0.0015407 0.0000095 0.0
0.0015100 0.0000149 0.0
0.0014685 0.0000202 0.0
0.0014166 0.0000253 0.0
0.0013545 0.0000303 0.0
0.0012822 0.0000352 0.0
0.0011998 0.0000402 0.0
0.0011073 0.0000451 0.0
0.0010046 0.0000501 0.0
0.0008915 0.0000552 0.0
0.0007678 0.0000605 0.0
0.0006332 0.0000659 0.0
0.0004873 0.0000715 0.0
0.0003297 0.0000774 0.0
0.0001599 0.0000836 0.0
-0.0000224 0.0000900 0.0
-0.0002179 0.0000966 0.0
-0.0004270 0.0001036 0.0
-0.0006502 0.0001109 0.0
-0.0008880 0.0001184 0.0
-0.0011410 0.0001262 0.0
-0.0014095 0.0001343 0.0
-0.0016939 0.0001426 0.0
-0.0019947 0.0001511 0.0
-0.0023121 0.0001598 0.0
-0.0026465 0.0001687 0.0
-0.0029980 0.0001777 0.0
-0.0033669 0.0001869 0.0
-0.0037531 0.0001961 0.0
-0.0041566 0.0002053 0.0
-0.0045775 0.0002145 0.0
-0.0050155 0.0002236 0.0
-0.0054703 0.0002327 0.0
-0.0059416 0.0002416 0.0
-0.0064289 0.0002503 0.0
-0.0069317 0.0002587 0.0
-0.0074492 0.0002668 0.0
-0.0079807 0.0002745 0.0
-0.0085252 0.0002817 0.0
-0.0090818 0.0002885 0.0
-0.0096492 0.0002946 0.0
-0.0102262 0.0003002 0.0
-0.0108114 0.0003050 0.0
-0.0114034 0.0003090 0.0
-0.0120004 0.0003122 0.0
-0.0126007 0.0003145 0.0
-0.0132025 0.0003159 0.0
-0.0138039 0.0003162 0.0
-0.0144028 0.0003154 0.0
-0.0149970 0.0003135 0.0
-0.0155844 0.0003104 0.0
-0.0161626 0.0003061 0.0
-0.0167292 0.0003005 0.0
-0.0172819 0.0002936 0.0
-0.0178181 0.0002854 0.0
-0.0183354 0.0002757 0.0
-0.0188312 0.0002647 0.0
-0.0193030 0.0002523 0.0
-0.0197483 0.0002385 0.0
-0.0201645 0.0002233 0.0
-0.0205492 0.0002068 0.0
-0.0209001 0.0001888 0.0
-0.0212146 0.0001696 0.0
-0.0214906 0.0001490 0.0
-0.0217258 0.0001273 0.0
-0.0219183 0.0001043 0.0
-0.0220662 0.0000803 0.0
-0.0221675 0.0000553 0.0
-0.0222209 0.0000293 0.0
-0.0222247 0.0000025 0.0
-0.0221779 -0.0000250 0.0
-0.0220794 -0.0000531 0.0
-0.0219284 -0.0000817 0.0
-0.0217244 -0.0001106 0.0
-0.0214672 -0.0001396 0.0
-0.0211567 -0.0001687 0.0
-0.0207931 -0.0001977 0.0
-0.0203772 -0.0002263 0.0
-0.0199096 -0.0002545 0.0
-0.0193915 -0.0002820 0.0
-0.0188245 -0.0003088 0.0
-0.0182102 -0.0003345 0.0
-0.0175507 -0.0003590 0.0
-0.0168483 -0.0003822 0.0
-0.0161057 -0.0004039 0.0
-0.0153257 -0.0004239 0.0
-0.0145116 -0.0004421 0.0
-0.0136667 -0.0004583 0.0
-0.0127947 -0.0004724 0.0
-0.0118994 -0.0004844 0.0
-0.0109849 -0.0004940 0.0
-0.0100552 -0.0005012 0.0
-0.0091148 -0.0005060 0.0
-0.0081680 -0.0005083 0.0
-0.0072192 -0.0005081 0.0
-0.0062728 -0.0005054 0.0
-0.0053334 -0.0005001 0.0
-0.0044053 -0.0004925 0.0
-0.0034928 -0.0004824 0.0
-0.0026000 -0.0004701 0.0
-0.0017310 -0.0004556 0.0
-0.0008895 -0.0004391 0.0
-0.0000790 -0.0004206 0.0
0.0006970 -0.0004004 0.0
0.0014357 -0.0003787 0.0
0.0021342 -0.0003556 0.0
0.0027904 -0.0003314 0.0
0.0034021 -0.0003062 0.0
0.0039677 -0.0002802 0.0
0.0044860 -0.0002538 0.0
0.0049561 -0.0002270 0.0
0.0053774 -0.0002001 0.0
0.0057497 -0.0001734 0.0
0.0060734 -0.0001469 0.0
0.0063488 -0.0001209 0.0
0.0065769 -0.0000956 0.0
0.0067589 -0.0000711 0.0
0.0068961 -0.0000476 0.0
0.0069903 -0.0000251 0.0
0.0070432 -0.0000038 0.0
0.0070572 0.0000162 0.0
0.0070343 0.0000349 0.0
0.0069769 0.0000522 0.0
0.0068875 0.0000681 0.0
0.0067687 0.0000826 0.0
0.0066230 0.0000956 0.0
0.0064529 0.0001072 0.0
0.0062611 0.0001175 0.0
0.0060499 0.0001264 0.0
0.0058217 0.0001340 0.0
0.0055790 0.0001404 0.0
0.0053240 0.0001456 0.0
0.0050586 0.0001498 0.0
0.0047850 0.0001530 0.0
0.0045048 0.0001553 0.0
0.0042200 0.0001568 0.0
0.0039319 0.0001575 0.0
0.0036421 0.0001575 0.0
0.0033520 0.0001568 0.0
0.0030628 0.0001556 0.0
0.0027757 0.0001537 0.0
0.0024921 0.0001513 0.0
0.0022132 0.0001482 0.0
0.0019404 0.0001445 0.0
0.0016752 0.0001399 0.0
0.0014194 0.0001343 0.0
0.0011750 0.0001275 0.0
0.0009444 0.0001193 0.0
0.0007305 0.0001094 0.0
0.0005366 0.0000974 0.0
0.0003663 0.0000830 0.0
0.0002238 0.0000659 0.0
0.0001130 0.0000462 0.0
0.0000374 0.0000247 0.0
-0.0000022 0.0000040 0.0
-0.0000097 -0.0000092 0.0
0.0000000 0.0000000 0.0
0.0000000 0.0000000 0.0
-0.0011190 -0.0015308 0.0
-0.0012441 -0.0013840 0.0
-0.0009675 -0.0009878 0.0
-0.0005919 -0.0006954 0.0
-0.0002193 -0.0005227 0.0
0.0001277 -0.0004265 0.0
0.0004493 -0.0003713 0.0
0.0007491 -0.0003361 0.0
0.0010299 -0.0003099 0.0
0.0012925 -0.0002871 0.0
0.0015366 -0.0002650 0.0
0.0017611 -0.0002424 0.0
0.0019650 -0.0002190 0.0
0.0021470 -0.0001947 0.0
0.0023061 -0.0001697 0.0
0.0024417 -0.0001442 0.0
0.0025532 -0.0001185 0.0
0.0026405 -0.0000929 0.0
0.0027034 -0.0000675 0.0
0.0027422 -0.0000426 0.0
0.0027572 -0.0000182 0.0
0.0027488 0.0000055 0.0
0.0027175 0.0000286 0.0
0.0026639 0.0000509 0.0
0.0025883 0.0000727 0.0
0.0024914 0.0000938 0.0
0.0023733 0.0001146 0.0
0.0022345 0.0001350 0.0
0.0020750 0.0001552 0.0
0.0018949 0.0001754 0.0
0.0016942 0.0001957 0.0
0.0014726 0.0002163 0.0
0.0012297 0.0002373 0.0
0.0009651 0.0002588 0.0
0.0006782 0.0002810 0.0
0.0003683 0.0003040 0.0
0.0000347 0.0003278 0.0
-0.0003234 0.0003526 0.0
-0.0007069 0.0003783 0.0
-0.0011166 0.0004051 0.0
-0.0015535 0.0004328 0.0
-0.0020185 0.0004616 0.0
-0.0025123 0.0004913 0.0
-0.0030358 0.0005219 0.0
-0.0035898 0.0005534 0.0
-0.0041748 0.0005857 0.0
-0.0047916 0.0006187 0.0
-0.0054405 0.0006523 0.0
-0.0061219 0.0006864 0.0
-0.0068361 0.0007209 0.0
-0.0075832 0.0007555 0.0
-0.0083631 0.0007903 0.0
-0.0091757 0.0008249 0.0
-0.0100205 0.0008593 0.0
-0.0108970 0.0008933 0.0
-0.0118044 0.0009266 0.0
-0.0127419 0.0009591 0.0
-0.0137084 0.0009906 0.0
-0.0147024 0.0010208 0.0
-0.0157224 0.0010495 0.0
-0.0167668 0.0010765 0.0
-0.0178334 0.0011016 0.0
-0.0189201 0.0011245 0.0
-0.0200245 0.0011449 0.0
-0.0211439 0.0011627 0.0
-0.0222755 0.0011777 0.0
-0.0234163 0.0011894 0.0
-0.0245629 0.0011979 0.0
-0.0257119 0.0012027 0.0
-0.0268596 0.0012037 0.0
-0.0280024 0.0012008 0.0
-0.0291361 0.0011936 0.0
-0.0302567 0.0011821 0.0
-0.0313599 0.0011660 0.0
-0.0324413 0.0011453 0.0
-0.0334966 0.0011198 0.0
-0.0345212 0.0010894 0.0
-0.0355106 0.0010540 0.0
-0.0364601 0.0010136 0.0
-0.0373651 0.0009681 0.0
-0.0382212 0.0009176 0.0
-0.0390237 0.0008620 0.0
-0.0397683 0.0008015 0.0
-0.0404505 0.0007360 0.0
-0.0410663 0.0006658 0.0
-0.0416114 0.0005910 0.0
-0.0420821 0.0005118 0.0
-0.0424747 0.0004283 0.0
-0.0427857 0.0003408 0.0
-0.0430121 0.0002497 0.0
-0.0431508 0.0001552 0.0
-0.0431995 0.0000577 0.0
-0.0431558 -0.0000425 0.0
-0.0430179 -0.0001448 0.0
-0.0427845 -0.0002490 0.0
-0.0424545 -0.0003544 0.0
-0.0420272 -0.0004607 0.0
-0.0415026 -0.0005673 0.0
-0.0408810 -0.0006735 0.0
-0.0401631 -0.0007790 0.0
-0.0393504 -0.0008831 0.0
-0.0384446 -0.0009851 0.0
-0.0374480 -0.0010846 0.0
-0.0363635 -0.0011808 0.0
-0.0351943 -0.0012733 0.0
-0.0339444 -0.0013614 0.0
-0.0326181 -0.0014445 0.0
-0.0312201 -0.0015221 0.0
-0.0297557 -0.0015936 0.0
-0.0282306 -0.0016585 0.0
-0.0266509 -0.0017164 0.0
-0.0250231 -0.0017668 0.0
-0.0233539 -0.0018093 0.0
-0.0216506 -0.0018437 0.0
-0.0199203 -0.0018695 0.0
-0.0181708 -0.0018867 0.0
-0.0164096 -0.0018951 0.0
-0.0146446 -0.0018946 0.0
-0.0128835 -0.0018852 0.0
-0.0111343 -0.0018670 0.0
-0.0094045 -0.0018401 0.0
-0.0077018 -0.0018048 0.0
-0.0060336 -0.0017613 0.0
-0.0044068 -0.0017100 0.0
-0.0028282 -0.0016514 0.0
-0.0013044 -0.0015859 0.0
0.0001589 -0.0015142 0.0
0.0015562 -0.0014367 0.0
0.0028825 -0.0013542 0.0
0.0041334 -0.0012673 0.0
0.0053051 -0.0011768 0.0
0.0063944 -0.0010834 0.0
0.0073989 -0.0009878 0.0
0.0083166 -0.0008908 0.0
0.0091462 -0.0007931 0.0
0.0098871 -0.0006955 0.0
0.0105392 -0.0005986 0.0
0.0111033 -0.0005031 0.0
0.0115805 -0.0004096 0.0
0.0119724 -0.0003186 0.0
0.0122814 -0.0002308 0.0
0.0125101 -0.0001466 0.0
0.0126616 -0.0000664 0.0
0.0127395 0.0000095 0.0
0.0127475 0.0000808 0.0
0.0126896 0.0001472 0.0
0.0125703 0.0002087 0.0
0.0123938 0.0002650 0.0
0.0121647 0.0003163 0.0
0.0118875 0.0003625 0.0
0.0115669 0.0004036 0.0
0.0112073 0.0004398 0.0
0.0108132 0.0004713 0.0
0.0103888 0.0004983 0.0
0.0099383 0.0005209 0.0
0.0094657 0.0005395 0.0
0.0089747 0.0005543 0.0
0.0084689 0.0005655 0.0
0.0079515 0.0005735 0.0
0.0074257 0.0005784 0.0
0.0068945 0.0005804 0.0
0.0063606 0.0005799 0.0
0.0058267 0.0005767 0.0
0.0052953 0.0005711 0.0
0.0047691 0.0005630 0.0
0.0042507 0.0005522 0.0
0.0037428 0.0005385 0.0
0.0032487 0.0005215 0.0
0.0027716 0.0005008 0.0
0.0023155 0.0004755 0.0
0.0018848 0.0004450 0.0
0.0014845 0.0004084 0.0
0.0011204 0.0003647 0.0
0.0007984 0.0003133 0.0
0.0005250 0.0002538 0.0
0.0003062 0.0001869 0.0
0.0001466 0.0001157 0.0
0.0000474 0.0000476 0.0
0.0000036 -0.0000016 0.0
0.0000000 0.0000000 0.0
0.0000000 0.0000000 0.0
-0.0004891 -0.0010419 0.0
-0.0007474 -0.0013004 0.0
-0.0006788 -0.0012035 0.0
-0.0004161 -0.0010364 0.0
-0.0000665 -0.0008967 0.0
0.0003130 -0.0007976 0.0
0.0006961 -0.0007280 0.0
0.0010706 -0.0006751 0.0
0.0014303 -0.0006297 0.0
0.0017711 -0.0005864 0.0
0.0020896 -0.0005421 0.0
0.0023829 -0.0004957 0.0
0.0026485 -0.0004468 0.0
0.0028841 -0.0003955 0.0
0.0030881 -0.0003424 0.0
0.0032591 -0.0002879 0.0
0.0033961 -0.0002328 0.0
0.0034986 -0.0001774 0.0
0.0035663 -0.0001223 0.0
0.0035993 -0.0000679 0.0
0.0035978 -0.0000144 0.0
0.0035623 0.0000380 0.0
0.0034930 0.0000891 0.0
0.0033907 0.0001390 0.0
0.0032558 0.0001878 0.0
0.0030889 0.0002355 0.0
0.0028902 0.0002825 0.0
0.0026600 0.0003290 0.0
0.0023985 0.0003751 0.0
0.0021055 0.0004213 0.0
0.0017810 0.0004678 0.0
0.0014245 0.0005150 0.0
0.0010356 0.0005630 0.0
0.0006134 0.0006123 0.0
0.0001572 0.0006630 0.0
-0.0003339 0.0007153 0.0
-0.0008610 0.0007695 0.0
-0.0014252 0.0008255 0.0
-0.0020276 0.0008836 0.0
-0.0026694 0.0009437 0.0
-0.0033517 0.0010058 0.0
-0.0040758 0.0010700 0.0
-0.0048426 0.0011361 0.0
-0.0056531 0.0012040 0.0
-0.0065083 0.0012736 0.0
-0.0074089 0.0013447 0.0
-0.0083556 0.0014171 0.0
-0.0093488 0.0014905 0.0
-0.0103887 0.0015647 0.0
-0.0114755 0.0016394 0.0
-0.0126091 0.0017142 0.0
-0.0137890 0.0017888 0.0
-0.0150147 0.0018630 0.0
-0.0162853 0.0019361 0.0
-0.0175998 0.0020080 0.0
-0.0189567 0.0020780 0.0
-0.0203543 0.0021459 0.0
-0.0217907 0.0022111 0.0
-0.0232635 0.0022731 0.0
-0.0247703 0.0023315 0.0
-0.0263082 0.0023858 0.0
-0.0278738 0.0024354 0.0
-0.0294639 0.0024799 0.0
-0.0310746 0.0025188 0.0
-0.0327017 0.0025515 0.0
-0.0343411 0.0025777 0.0
-0.0359879 0.0025967 0.0
-0.0376374 0.0026082 0.0
-0.0392844 0.0026117 0.0
-0.0409235 0.0026067 0.0
-0.0425492 0.0025930 0.0
-0.0441558 0.0025701 0.0
-0.0457374 0.0025377 0.0
-0.0472878 0.0024955 0.0
-0.0488011 0.0024432 0.0
-0.0502710 0.0023808 0.0
-0.0516911 0.0023079 0.0
-0.0530554 0.0022245 0.0
-0.0543575 0.0021306 0.0
-0.0555912 0.0020262 0.0
-0.0567505 0.0019113 0.0
-0.0578292 0.0017860 0.0
-0.0588217 0.0016505 0.0
-0.0597222 0.0015051 0.0
-0.0605253 0.0013501 0.0
-0.0612259 0.0011858 0.0
-0.0618191 0.0010127 0.0
-0.0623003 0.0008312 0.0
-0.0626653 0.0006421 0.0
-0.0629104 0.0004457 0.0
-0.0630321 0.0002430 0.0
-0.0630275 0.0000346 0.0
-0.0628942 -0.0001787 0.0
-0.0626302 -0.0003959 0.0
-0.0622341 -0.0006162 0.0
-0.0617049 -0.0008386 0.0
-0.0610426 -0.0010621 0.0
-0.0602472 -0.0012855 0.0
-0.0593198 -0.0015078 0.0
-0.0582618 -0.0017279 0.0
-0.0570755 -0.0019445 0.0
-0.0557636 -0.0021566 0.0
-0.0543295 -0.0023628 0.0
-0.0527775 -0.0025621 0.0
-0.0511120 -0.0027531 0.0
-0.0493386 -0.0029349 0.0
-0.0474631 -0.0031062 0.0
-0.0454921 -0.0032659 0.0
-0.0434326 -0.0034130 0.0
-0.0412923 -0.0035465 0.0
-0.0390794 -0.0036654 0.0
-0.0368023 -0.0037690 0.0
-0.0344700 -0.0038565 0.0
-0.0320920 -0.0039272 0.0
-0.0296779 -0.0039807 0.0
-0.0272377 -0.0040164 0.0
-0.0247813 -0.0040342 0.0
-0.0223191 -0.0040338 0.0
-0.0198612 -0.0040153 0.0
-0.0174180 -0.0039788 0.0
-0.0149996 -0.0039246 0.0
-0.0126160 -0.0038531 0.0
-0.0102769 -0.0037648 0.0
-0.0079918 -0.0036606 0.0
-0.0057696 -0.0035411 0.0
-0.0036190 -0.0034075 0.0
-0.0015479 -0.0032606 0.0
0.0004361 -0.0031019 0.0
0.0023262 -0.0029324 0.0
0.0041164 -0.0027536 0.0
0.0058012 -0.0025669 0.0
0.0073760 -0.0023737 0.0
0.0088370 -0.0021755 0.0
0.0101812 -0.0019739 0.0
0.0114064 -0.0017703 0.0
0.0125113 -0.0015661 0.0
0.0134954 -0.0013628 0.0
0.0143589 -0.0011618 0.0
0.0151028 -0.0009644 0.0
0.0157291 -0.0007717 0.0
0.0162401 -0.0005849 0.0
0.0166390 -0.0004050 0.0
0.0169296 -0.0002328 0.0
0.0171161 -0.0000692 0.0
0.0172034 0.0000851 0.0
0.0171964 0.0002298 0.0
0.0171008 0.0003644 0.0
0.0169223 0.0004886 0.0
0.0166668 0.0006022 0.0
0.0163403 0.0007054 0.0
0.0159491 0.0007980 0.0
0.0154992 0.0008805 0.0
0.0149968 0.0009528 0.0
0.0144476 0.0010156 0.0
0.0138575 0.0010691 0.0
0.0132322 0.0011138 0.0
0.0125768 0.0011502 0.0
0.0118966 0.0011789 0.0
0.0111964 0.0012002 0.0
0.0104808 0.0012148 0.0
0.0097542 0.0012229 0.0
0.0090208 0.0012250 0.0
0.0082845 0.0012212 0.0
0.0075494 0.0012117 0.0
0.0068194 0.0011963 0.0
0.0060985 0.0011749 0.0
0.0053910 0.0011468 0.0
0.0047014 0.0011115 0.0
0.0040345 0.0010678 0.0
0.0033959 0.0010147 0.0
0.0027916 0.0009507 0.0
0.0022282 0.0008742 0.0
0.0017132 0.0007839 0.0
0.0012541 0.0006786 0.0
0.0008587 0.0005584 0.0
0.0005343 0.0004249 0.0
0.0002864 0.0002839 0.0
0.0001174 0.0001473 0.0
0.0000250 0.0000386 0.0
0.0000000 0.0000000 0.0
0.0000000 0.0000000 0.0
-0.0001985 -0.0007829 0.0
-0.0003670 -0.0011941 0.0
-0.0003441 -0.0013188 0.0
-0.0001457 -0.0013073 0.0
0.0001678 -0.0012515 0.0
0.0005445 -0.0011887 0.0
0.0009496 -0.0011285 0.0
0.0013613 -0.0010700 0.0
0.0017659 -0.0010100 0.0
0.0021538 -0.0009460 0.0
0.0025183 -0.0008764 0.0
0.0028540 -0.0008009 0.0
0.0031566 -0.0007199 0.0
0.0034227 -0.0006340 0.0
0.0036497 -0.0005443 0.0
0.0038354 -0.0004519 0.0
0.0039783 -0.0003577 0.0
0.0040775 -0.0002628 0.0
0.0041324 -0.0001679 0.0
0.0041427 -0.0000737 0.0
0.0041085 0.0000192 0.0
0.0040299 0.0001107 0.0
0.0039075 0.0002004 0.0
0.0037416 0.0002885 0.0
0.0035326 0.0003749 0.0
0.0032810 0.0004599 0.0
0.0029870 0.0005438 0.0
0.0026507 0.0006270 0.0
0.0022723 0.0007100 0.0
0.0018514 0.0007932 0.0
0.0013878 0.0008770 0.0
0.0008809 0.0009621 0.0
0.0003299 0.0010488 0.0
-0.0002659 0.0011375 0.0
-0.0009077 0.0012287 0.0
-0.0015966 0.0013226 0.0
-0.0023340 0.0014195 0.0
-0.0031210 0.0015195 0.0
-0.0039590 0.0016229 0.0
-0.0048495 0.0017296 0.0
-0.0057938 0.0018396 0.0
-0.0067930 0.0019527 0.0
-0.0078485 0.0020690 0.0
-0.0089612 0.0021880 0.0
-0.0101320 0.0023096 0.0
-0.0113616 0.0024333 0.0
-0.0126506 0.0025589 0.0
-0.0139992 0.0026858 0.0
-0.0154074 0.0028135 0.0
-0.0168750 0.0029416 0.0
-0.0184015 0.0030694 0.0
-0.0199859 0.0031963 0.0
-0.0216271 0.0033216 0.0
-0.0233236 0.0034448 0.0
-0.0250735 0.0035650 0.0
-0.0268746 0.0036815 0.0
-0.0287242 0.0037935 0.0
-0.0306194 0.0039002 0.0
-0.0325568 0.0040008 0.0
-0.0345327 0.0040945 0.0
-0.0365429 0.0041804 0.0
-0.0385830 0.0042577 0.0
-0.0406481 0.0043255 0.0
-0.0427330 0.0043831 0.0
-0.0448321 0.0044296 0.0
-0.0469396 0.0044642 0.0
-0.0490493 0.0044861 0.0
-0.0511547 0.0044947 0.0
-0.0532491 0.0044892 0.0
-0.0553257 0.0044689 0.0
-0.0573771 0.0044334 0.0
-0.0593962 0.0043821 0.0
-0.0613755 0.0043145 0.0
-0.0633074 0.0042301 0.0
-0.0651844 0.0041288 0.0
-0.0669988 0.0040102 0.0
-0.0687430 0.0038742 0.0
-0.0704095 0.0037207 0.0
-0.0719908 0.0035498 0.0
-0.0734795 0.0033614 0.0
-0.0748685 0.0031560 0.0
-0.0761508 0.0029336 0.0