# vtk DataFile Version 2.0
Lid Driven Cavity Flow
ASCII
DATASET STRUCTURED_GRID
DIMENSIONS 181 181 1
POINTS 32761 float
0.0000000 0.0000000 0.0
0.0055556 0.0000000 0.0
0.0111111 0.0000000 0.0
0.0166667 0.0000000 0.0
0.0222222 0.0000000 0.0
0.0277778 0.0000000 0.0
0.0333333 0.0000000 0.0
0.0388889 0.0000000 0.0
0.0444444 0.0000000 0.0
0.0500000 0.0000000 0.0
0.0555556 0.0000000 0.0
0.0611111 0.0000000 0.0
0.0666667 0.0000000 0.0
0.0722222 0.0000000 0.0
0.0777778 0.0000000 0.0
0.0833333 0.0000000 0.0
0.0888889 0.0000000 0.0
0.0944444 0.0000000 0.0
0.1000000 0.0000000 0.0
0.1055556 0.0000000 0.0
0.1111111 0.0000000 0.0
0.1166667 0.0000000 0.0
0.1222222 0.0000000 0.0
0.1277778 0.0000000 0.0
0.1333333 0.0000000 0.0
0.1388889 0.0000000 0.0
0.1444444 0.0000000 0.0
0.1500000 0.0000000 0.0
0.1555556 0.0000000 0.0
0.1611111 0.0000000 0.0
0.1666667 0.0000000 0.0
0.1722222 0.0000000 0.0
0.1777778 0.0000000 0.0
0.1833333 0.0000000 0.0
0.1888889 0.0000000 0.0
0.1944444 0.0000000 0.0
0.2000000 0.0000000 0.0
0.2055556 0.0000000 0.0
0.2111111 0.0000000 0.0
0.2166667 0.0000000 0.0
0.2222222 0.0000000 0.0
0.2277778 0.0000000 0.0
0.2333333 0.0000000 0.0
0.2388889 0.0000000 0.0
0.2444444 0.0000000 0.0
0.2500000 0.0000000 0.0
0.2555556 0.0000000 0.0
0.2611111 0.0000000 0.0
0.2666667 0.0000000 0.0
0.2722222 0.0000000 0.0
0.2777778 0.0000000 0.0
0.2833333 0.0000000 0.0
0.2888889 0.0000000 0.0
0.2944444 0.0000000 0.0
0.3000000 0.0000000 0.0
0.3055556 0.0000000 0.0
0.3111111 0.0000000 0.0
0.3166667 0.0000000 0.0
0.3222222 0.0000000 0.0
0.3277778 0.0000000 0.0
0.3333333 0.0000000 0.0
0.3388889 0.0000000 0.0
0.3444444 0.0000000 0.0
0.3500000 0.0000000 0.0
0.3555556 0.0000000 0.0
0.3611111 0.0000000 0.0
0.3666667 0.0000000 0.0
0.3722222 0.0000000 0.0
0.3777778 0.0000000 0.0
0.3833333 0.0000000 0.0
0.3888889 0.0000000 0.0
0.3944444 0.0000000 0.0
0.4000000 0.0000000 0.0
0.4055556 0.0000000 0.0
0.4111111 0.0000000 0.0
0.4166667 0.0000000 0.0
0.4222222 0.0000000 0.0
0.4277778 0.0000000 0.0
0.4333333 0.0000000 0.0
0.4388889 0.0000000 0.0
0.4444444 0.0000000 0.0
0.4500000 0.0000000 0.0
0.4555556 0.0000000 0.0
0.4611111 0.0000000 0.0
0.4666667 0.0000000 0.0
0.4722222 0.0000000 0.0
0.4777778 0.0000000 0.0
0.4833333 0.0000000 0.0
0.4888889 0.0000000 0.0
0.4944444 0.0000000 0.0
0.5000000 0.0000000 0.0
0.5055556 0.0000000 0.0
0.5111111 0.0000000 0.0
0.5166667 0.0000000 0.0
0.5222222 0.0000000 0.0
0.5277778 0.0000000 0.0
0.5333333 0.0000000 0.0
0.5388889 0.0000000 0.0
0.5444444 0.0000000 0.0
0.5500000 0.0000000 0.0
0.5555556 0.0000000 0.0
0.5611111 0.0000000 0.0
0.5666667 0.0000000 0.0
0.5722222 0.0000000 0.0
0.5777778 0.0000000 0.0
0.5833333 0.0000000 0.0
0.5888889 0.0000000 0.0
0.5944444 0.0000000 0.0
0.6000000 0.0000000 0.0
0.6055556 0.0000000 0.0
0.6111111 0.0000000 0.0
0.6166667 0.0000000 0.0
0.6222222 0.0000000 0.0
0.6277778 0.0000000 0.0
0.6333333 0.0000000 0.0
0.6388889 0.0000000 0.0
0.6444444 0.0000000 0.0
0.6500000 0.0000000 0.0
0.6555556 0.0000000 0.0
0.6611111 0.0000000 0.0
0.6666667 0.0000000 0.0
0.6722222 0.0000000 0.0
0.6777778 0.0000000 0.0
0.6833333 0.0000000 0.0
0.6888889 0.0000000 0.0
0.6944444 0.0000000 0.0
0.7000000 0.0000000 0.0
0.7055556 0.0000000 0.0
0.7111111 0.0000000 0.0
0.7166667 0.0000000 0.0
0.7222222 0.0000000 0.0
0.7277778 0.0000000 0.0
0.7333333 0.0000000 0.0
0.7388889 0.0000000 0.0
0.7444444 0.0000000 0.0
0.7500000 0.0000000 0.0
0.7555556 0.0000000 0.0
0.7611111 0.0000000 0.0
0.7666667 0.0000000 0.0
0.7722222 0.0000000 0.0
0.7777778 0.0000000 0.0
0.7833333 0.0000000 0.0
0.7888889 0.0000000 0.0
0.7944444 0.0000000 0.0
0.8000000 0.0000000 0.0
0.8055556 0.0000000 0.0
0.8111111 0.0000000 0.0
0.8166667 0.0000000 0.0
0.8222222 0.0000000 0.0
0.8277778 0.0000000 0.0
0.8333333 0.0000000 0.0
0.8388889 0.0000000 0.0
0.8444444 0.0000000 0.0
0.8500000 0.0000000 0.0
0.8555556 0.0000000 0.0
0.8611111 0.0000000 0.0
0.8666667 0.0000000 0.0
0.8722222 0.0000000 0.0
0.8777778 0.0000000 0.0
0.8833333 0.0000000 0.0
0.8888889 0.0000000 0.0
0.8944444 0.0000000 0.0
0.9000000 0.0000000 0.0
0.9055556 0.0000000 0.0
0.9111111 0.0000000 0.0
0.9166667 0.0000000 0.0
0.9222222 0.0000000 0.0
0.9277778 0.0000000 0.0
0.9333333 0.0000000 0.0
0.9388889 0.0000000 0.0
0.9444444 0.0000000 0.0
0.9500000 0.0000000 0.0
0.9555556 0.0000000 0.0
0.9611111 0.0000000 0.0
0.9666667 0.0000000 0.0
0.9722222 0.0000000 0.0
0.9777778 0.0000000 0.0
0.9833333 0.0000000 0.0
0.9888889 0.0000000 0.0
0.9944444 0.0000000 0.0
1.0000000 0.0000000 0.0
0.0000000 0.0055556 0.0
0.0055556 0.0055556 0.0
0.0111111 0.0055556 0.0
0.0166667 0.0055556 0.0
0.0222222 0.0055556 0.0
0.0277778 0.0055556 0.0
0.0333333 0.0055556 0.0
0.0388889 0.0055556 0.0
0.0444444 0.0055556 0.0
0.0500000 0.0055556 0.0
0.0555556 0.0055556 0.0
0.0611111 0.0055556 0.0
0.0666667 0.0055556 0.0
0.0722222 0.0055556 0.0
0.0777778 0.0055556 0.0
0.0833333 0.0055556 0.0
0.0888889 0.0055556 0.0
0.0944444 0.0055556 0.0
0.1000000 0.0055556 0.0
0.1055556 0.0055556 0.0
0.1111111 0.0055556 0.0
0.1166667 0.0055556 0.0
0.1222222 0.0055556 0.0
0.1277778 0.0055556 0.0
0.1333333 0.0055556 0.0
0.1388889 0.0055556 0.0
0.1444444 0.0055556 0.0
0.1500000 0.0055556 0.0
0.1555556 0.0055556 0.0
0.1611111 0.0055556 0.0
0.1666667 0.0055556 0.0
0.1722222 0.0055556 0.0
0.1777778 0.0055556 0.0
0.1833333 0.0055556 0.0
0.1888889 0.0055556 0.0
0.1944444 0.0055556 0.0
0.2000000 0.0055556 0.0
0.2055556 0.0055556 0.0
0.2111111 0.0055556 0.0
0.2166667 0.0055556 0.0
0.2222222 0.0055556 0.0
0.2277778 0.0055556 0.0
0.2333333 0.0055556 0.0
0.2388889 0.0055556 0.0
0.2444444 0.0055556 0.0
0.2500000 0.0055556 0.0
0.2555556 0.0055556 0.0
0.2611111 0.0055556 0.0
0.2666667 0.0055556 0.0
0.2722222 0.0055556 0.0
0.2777778 0.0055556 0.0
0.2833333 0.0055556 0.0
0.2888889 0.0055556 0.0
0.2944444 0.0055556 0.0
0.3000000 0.0055556 0.0
0.3055556 0.0055556 0.0
0.3111111 0.0055556 0.0
0.3166667 0.0055556 0.0
0.3222222 0.0055556 0.0
0.3277778 0.0055556 0.0
0.3333333 0.0055556 0.0
0.3388889 0.0055556 0.0
0.3444444 0.0055556 0.0
0.3500000 0.0055556 0.0
0.3555556 0.0055556 0.0
0.3611111 0.0055556 0.0
0.3666667 0.0055556 0.0
0.3722222 0.0055556 0.0
0.3777778 0.0055556 0.0
0.3833333 0.0055556 0.0
0.3888889 0.0055556 0.0
0.3944444 0.0055556 0.0
0.4000000 0.0055556 0.0
0.4055556 0.0055556 0.0
0.4111111 0.0055556 0.0
0.4166667 0.0055556 0.0
0.4222222 0.0055556 0.0
0.4277778 0.0055556 0.0
0.4333333 0.0055556 0.0
0.4388889 0.0055556 0.0
0.4444444 0.0055556 0.0
0.4500000 0.0055556 0.0
0.4555556 0.0055556 0.0
0.4611111 0.0055556 0.0
0.4666667 0.0055556 0.0
0.4722222 0.0055556 0.0
0.4777778 0.0055556 0.0
0.4833333 0.0055556 0.0
0.4888889 0.0055556 0.0
0.4944444 0.0055556 0.0
0.5000000 0.0055556 0.0
0.5055556 0.0055556 0.0
0.5111111 0.0055556 0.0
0.5166667 0.0055556 0.0
0.5222222 0.0055556 0.0
0.5277778 0.0055556 0.0
0.5333333 0.0055556 0.0
0.5388889 0.0055556 0.0
0.5444444 0.0055556 0.0
0.5500000 0.0055556 0.0
0.5555556 0.0055556 0.0
0.5611111 0.0055556 0.0
0.5666667 0.0055556 0.0
0.5722222 0.0055556 0.0
0.5777778 0.0055556 0.0
0.5833333 0.0055556 0.0
0.5888889 0.0055556 0.0
0.5944444 0.0055556 0.0
0.6000000 0.0055556 0.0
0.6055556 0.0055556 0.0
0.6111111 0.0055556 0.0
0.6166667 0.0055556 0.0
0.6222222 0.0055556 0.0
0.6277778 0.0055556 0.0
0.6333333 0.0055556 0.0
0.6388889 0.0055556 0.0
0.6444444 0.0055556 0.0
0.6500000 0.0055556 0.0
0.6555556 0.0055556 0.0
0.6611111 0.0055556 0.0
0.6666667 0.0055556 0.0
0.6722222 0.0055556 0.0
0.6777778 0.0055556 0.0
0.6833333 0.0055556 0.0
0.6888889 0.0055556 0.0
0.6944444 0.0055556 0.0
0.7000000 0.0055556 0.0
0.7055556 0.0055556 0.0
0.7111111 0.0055556 0.0
0.7166667 0.0055556 0.0
0.7222222 0.0055556 0.0
0.7277778 0.0055556 0.0
0.7333333 0.0055556 0.0
0.7388889 0.0055556 0.0
0.7444444 0.0055556 0.0
0.7500000 0.0055556 0.0
0.7555556 0.0055556 0.0
0.7611111 0.0055556 0.0
0.7666667 0.0055556 0.0
0.7722222 0.0055556 0.0
0.7777778 0.0055556 0.0
0.7833333 0.0055556 0.0
0.7888889 0.0055556 0.0
0.7944444 0.0055556 0.0
0.8000000 0.0055556 0.0
0.8055556 0.0055556 0.0
0.8111111 0.0055556 0.0
0.8166667 0.0055556 0.0
0.8222222 0.0055556 0.0
0.8277778 0.0055556 0.0
0.8333333 0.0055556 0.0
0.8388889 0.0055556 0.0
0.8444444 0.0055556 0.0
0.8500000 0.0055556 0.0
0.8555556 0.0055556 0.0
0.8611111 0.0055556 0.0
0.8666667 0.0055556 0.0
0.8722222 0.0055556 0.0
0.8777778 0.0055556 0.0
0.8833333 0.0055556 0.0
0.8888889 0.0055556 0.0
0.8944444 0.0055556 0.0
0.9000000 0.0055556 0.0
0.9055556 0.0055556 0.0
0.9111111 0.0055556 0.0
0.9166667 0.0055556 0.0
0.9222222 0.0055556 0.0
0.9277778 0.0055556 0.0
0.9333333 0.0055556 0.0
0.9388889 0.0055556 0.0
0.9444444 0.0055556 0.0
0.9500000 0.0055556 0.0
0.9555556 0.0055556 0.0
0.9611111 0.0055556 0.0
0.9666667 0.0055556 0.0
0.9722222 0.0055556 0.0
0.9777778 0.0055556 0.0
0.9833333 0.0055556 0.0
0.9888889 0.0055556 0.0
0.9944444 0.0055556 0.0
1.0000000 0.0055556 0.0
0.0000000 0.0111111 0.0
0.0055556 0.0111111 0.0
0.0111111 0.0111111 0.0
0.0166667 0.0111111 0.0
0.0222222 0.0111111 0.0
0.0277778 0.0111111 0.0
0.0333333 0.0111111 0.0
0.0388889 0.0111111 0.0
0.0444444 0.0111111 0.0
0.0500000 0.0111111 0.0
0.0555556 0.0111111 0.0
0.0611111 0.0111111 0.0
0.0666667 0.0111111 0.0
0.0722222 0.0111111 0.0
0.0777778 0.0111111 0.0
0.0833333 0.0111111 0.0
0.0888889 0.0111111 0.0
0.0944444 0.0111111 0.0
0.1000000 0.0111111 0.0
0.1055556 0.0111111 0.0
0.1111111 0.0111111 0.0
0.1166667 0.0111111 0.0
0.1222222 0.0111111 0.0
0.1277778 0.0111111 0.0
0.1333333 0.0111111 0.0
0.1388889 0.0111111 0.0
0.1444444 0.0111111 0.0
0.1500000 0.0111111 0.0
0.1555556 0.0111111 0.0
0.1611111 0.0111111 0.0
0.1666667 0.0111111 0.0
0.1722222 0.0111111 0.0
0.1777778 0.0111111 0.0
0.1833333 0.0111111 0.0
0.1888889 0.0111111 0.0
0.1944444 0.0111111 0.0
0.2000000 0.0111111 0.0
0.2055556 0.0111111 0.0
0.2111111 0.0111111 0.0
0.2166667 0.0111111 0.0
0.2222222 0.0111111 0.0
0.2277778 0.0111111 0.0
0.2333333 0.0111111 0.0
0.2388889 0.0111111 0.0
0.2444444 0.0111111 0.0
0.2500000 0.0111111 0.0
0.2555556 0.0111111 0.0
0.2611111 0.0111111 0.0
0.2666667 0.0111111 0.0
[...]
POINT_DATA 32761
VECTORS velocity float
0.0000000 0.0000000 0.0
0.0000000 0.0000000 0.0
0.0000000 0.0000000 0.0
0.0000000 0.0000000 0.0
0.0000000 0.0000000 0.0
0.0000000 0.0000000 0.0
0.0000000 0.0000000 0.0
0.0000000 0.0000000 0.0
0.0000000 0.0000000 0.0
0.0000000 0.0000000 0.0
0.0000000 0.0000000 0.0
0.0000000 0.0000000 0.0
0.0000000 0.0000000 0.0
0.0000000 0.0000000 0.0
0.0000000 0.0000000 0.0
0.0000000 0.0000000 0.0
0.0000000 0.0000000 0.0
0.0000000 0.0000000 0.0
0.0000000 0.0000000 0.0
0.0000000 0.0000000 0.0
0.0000000 0.0000000 0.0
0.0000000 0.0000000 0.0
0.0000000 0.0000000 0.0
0.0000000 0.0000000 0.0
0.0000000 0.0000000 0.0
0.0000000 0.0000000 0.0
0.0000000 0.0000000 0.0
0.0000000 0.0000000 0.0
0.0000000 0.0000000 0.0
0.0000000 0.0000000 0.0
0.0000000 0.0000000 0.0
0.0000000 0.0000000 0.0
0.0000000 0.0000000 0.0
0.0000000 0.0000000 0.0
0.0000000 0.0000000 0.0
0.0000000 0.0000000 0.0
0.0000000 0.0000000 0.0
0.0000000 0.0000000 0.0
0.0000000 0.0000000 0.0
0.0000000 0.0000000 0.0
0.0000000 0.0000000 0.0
0.0000000 0.0000000 0.0
0.0000000 0.0000000 0.0
0.0000000 0.0000000 0.0
0.0000000 0.0000000 0.0
0.0000000 0.0000000 0.0
0.0000000 0.0000000 0.0
0.0000000 0.0000000 0.0
0.0000000 0.0000000 0.0
0.0000000 0.0000000 0.0
0.0000000 0.0000000 0.0
0.0000000 0.0000000 0.0
0.0000000 0.0000000 0.0
0.0000000 0.0000000 0.0
0.0000000 0.0000000 0.0
0.0000000 0.0000000 0.0
0.0000000 0.0000000 0.0
0.0000000 0.0000000 0.0
0.0000000 0.0000000 0.0
0.0000000 0.0000000 0.0
0.0000000 0.0000000 0.0
0.0000000 0.0000000 0.0
0.0000000 0.0000000 0.0
0.0000000 0.0000000 0.0
0.0000000 0.0000000 0.0
0.0000000 0.0000000 0.0
0.0000000 0.0000000 0.0
0.0000000 0.0000000 0.0
0.0000000 0.0000000 0.0
0.0000000 0.0000000 0.0
0.0000000 0.0000000 0.0
0.0000000 0.0000000 0.0
0.0000000 0.0000000 0.0
0.0000000 0.0000000 0.0
0.0000000 0.0000000 0.0
0.0000000 0.0000000 0.0
0.0000000 0.0000000 0.0
0.0000000 0.0000000 0.0
0.0000000 0.0000000 0.0
0.0000000 0.0000000 0.0
0.0000000 0.0000000 0.0
0.0000000 0.0000000 0.0
0.0000000 0.0000000 0.0
0.0000000 0.0000000 0.0
0.0000000 0.0000000 0.0
0.0000000 0.0000000 0.0
0.0000000 0.0000000 0.0
0.0000000 0.0000000 0.0
0.0000000 0.0000000 0.0
0.0000000 0.0000000 0.0
0.0000000 0.0000000 0.0
0.0000000 0.0000000 0.0
0.0000000 0.0000000 0.0
0.0000000 0.0000000 0.0
0.0000000 0.0000000 0.0
0.0000000 0.0000000 0.0
0.0000000 0.0000000 0.0
0.0000000 0.0000000 0.0
0.0000000 0.0000000 0.0
0.0000000 0.0000000 0.0
0.0000000 0.0000000 0.0
0.0000000 0.0000000 0.0
0.0000000 0.0000000 0.0
0.0000000 0.0000000 0.0
0.0000000 0.0000000 0.0
0.0000000 0.0000000 0.0
0.0000000 0.0000000 0.0
0.0000000 0.0000000 0.0
0.0000000 0.0000000 0.0
0.0000000 0.0000000 0.0
0.0000000 0.0000000 0.0
0.0000000 0.0000000 0.0
0.0000000 0.0000000 0.0
0.0000000 0.0000000 0.0
0.0000000 0.0000000 0.0
0.0000000 0.0000000 0.0
0.0000000 0.0000000 0.0
0.0000000 0.0000000 0.0
0.0000000 0.0000000 0.0
0.0000000 0.0000000 0.0
0.0000000 0.0000000 0.0
0.0000000 0.0000000 0.0
0.0000000 0.0000000 0.0
0.0000000 0.0000000 0.0
0.0000000 0.0000000 0.0
0.0000000 0.0000000 0.0
0.0000000 0.0000000 0.0
0.0000000 0.0000000 0.0
0.0000000 0.0000000 0.0
0.0000000 0.0000000 0.0
0.0000000 0.0000000 0.0
0.0000000 0.0000000 0.0
0.0000000 0.0000000 0.0
0.0000000 0.0000000 0.0
0.0000000 0.0000000 0.0
0.0000000 0.0000000 0.0
0.0000000 0.0000000 0.0
0.0000000 0.0000000 0.0
0.0000000 0.0000000 0.0
0.0000000 0.0000000 0.0
0.0000000 0.0000000 0.0
0.0000000 0.0000000 0.0
0.0000000 0.0000000 0.0
0.0000000 0.0000000 0.0
0.0000000 0.0000000 0.0
0.0000000 0.0000000 0.0
0.0000000 0.0000000 0.0
0.0000000 0.0000000 0.0
0.0000000 0.0000000 0.0
0.0000000 0.0000000 0.0
0.0000000 0.0000000 0.0
0.0000000 0.0000000 0.0
0.0000000 0.0000000 0.0
0.0000000 0.0000000 0.0
0.0000000 0.0000000 0.0
0.0000000 0.0000000 0.0
0.0000000 0.0000000 0.0
0.0000000 0.0000000 0.0
0.0000000 0.0000000 0.0
0.0000000 0.0000000 0.0
0.0000000 0.0000000 0.0
0.0000000 0.0000000 0.0
0.0000000 0.0000000 0.0
0.0000000 0.0000000 0.0
0.0000000 0.0000000 0.0
0.0000000 0.0000000 0.0
0.0000000 0.0000000 0.0
0.0000000 0.0000000 0.0
0.0000000 0.0000000 0.0
0.0000000 0.0000000 0.0
0.0000000 0.0000000 0.0
0.0000000 0.0000000 0.0
0.0000000 0.0000000 0.0
0.0000000 0.0000000 0.0
0.0000000 0.0000000 0.0
0.0000000 0.0000000 0.0
0.0000000 0.0000000 0.0
0.0000000 0.0000000 0.0
0.0000000 0.0000000 0.0
0.0000000 0.0000000 0.0
0.0000032 0.0000000 0.0
0.0000000 0.0000000 0.0
0.0000009 -0.0000009 0.0
0.0000231 -0.0000153 0.0
0.0000708 -0.0000310 0.0
0.0001422 -0.0000444 0.0
0.0002327 -0.0000546 0.0
0.0003375 -0.0000617 0.0
0.0004520 -0.0000660 0.0
0.0005718 -0.0000681 0.0
0.0006935 -0.0000682 0.0
0.0008137 -0.0000666 0.0
0.0009299 -0.0000638 0.0
0.0010400 -0.0000600 0.0
0.0011422 -0.0000553 0.0
0.0012352 -0.0000500 0.0
0.0013179 -0.0000443 0.0
0.0013897 -0.0000383 0.0
0.0014499 -0.0000321 0.0
0.0014985 -0.0000258 0.0
0.0015351 -0.0000196 0.0
0.0015600 -0.0000135 0.0
0.0015731 -0.0000075 0.0
0.0015748 -0.0000017 0.0
0.0015652 0.0000040 0.0
0.0015446 0.0000094 0.0
0.0015133 0.0000147 0.0
0.0014716 0.0000199 0.0
0.0014196 0.0000249 0.0
0.0013575 0.0000299 0.0
0.0012854 0.0000347 0.0
0.0012032 0.0000396 0.0
0.0011111 0.0000445 0.0
0.0010088 0.0000495 0.0
0.0008961 0.0000546 0.0
0.0007729 0.0000599 0.0
0.0006387 0.0000653 0.0
0.0004933 0.0000710 0.0
0.0003361 0.0000769 0.0
0.0001668 0.0000830 0.0
-0.0000151 0.0000894 0.0
-0.0002102 0.0000961 0.0
-0.0004189 0.0001031 0.0
-0.0006418 0.0001103 0.0
-0.0008792 0.0001179 0.0
-0.0011318 0.0001257 0.0
-0.0013999 0.0001338 0.0
-0.0016840 0.0001421 0.0
-0.0019845 0.0001506 0.0
-0.0023016 0.0001593 0.0
-0.0026356 0.0001682 0.0
-0.0029868 0.0001772 0.0
-0.0033554 0.0001864 0.0
-0.0037413 0.0001956 0.0
-0.0041445 0.0002048 0.0
-0.0045651 0.0002140 0.0
-0.0050028 0.0002232 0.0
-0.0054574 0.0002322 0.0
-0.0059284 0.0002411 0.0
-0.0064155 0.0002498 0.0
-0.0069180 0.0002582 0.0
-0.0074353 0.0002663 0.0
-0.0079666 0.0002740 0.0
-0.0085109 0.0002813 0.0
-0.0090673 0.0002880 0.0
-0.0096346 0.0002942 0.0
-0.0102114 0.0002997 0.0
-0.0107965 0.0003046 0.0
-0.0113883 0.0003086 0.0
-0.0119852 0.0003118 0.0
-0.0125854 0.0003141 0.0
-0.0131872 0.0003155 0.0
-0.0137884 0.0003158 0.0
-0.0143872 0.0003150 0.0
-0.0149814 0.0003131 0.0
-0.0155687 0.0003101 0.0
-0.0161468 0.0003057 0.0
-0.0167133 0.0003001 0.0
-0.0172659 0.0002932 0.0
-0.0178021 0.0002850 0.0
-0.0183193 0.0002753 0.0
-0.0188150 0.0002643 0.0
-0.0192867 0.0002519 0.0
-0.0197319 0.0002381 0.0
-0.0201480 0.0002229 0.0
-0.0205326 0.0002063 0.0
-0.0208832 0.0001884 0.0
-0.0211976 0.0001691 0.0
-0.0214733 0.0001486 0.0
-0.0217084 0.0001268 0.0
-0.0219006 0.0001039 0.0
-0.0220482 0.0000798 0.0
-0.0221492 0.0000548 0.0
-0.0222022 0.0000288 0.0
-0.0222057 0.0000019 0.0
-0.0221585 -0.0000256 0.0
-0.0220596 -0.0000537 0.0
-0.0219082 -0.0000823 0.0
-0.0217037 -0.0001112 0.0
-0.0214460 -0.0001403 0.0
-0.0211350 -0.0001694 0.0
-0.0207709 -0.0001983 0.0
-0.0203544 -0.0002270 0.0
-0.0198863 -0.0002552 0.0
-0.0193676 -0.0002827 0.0
-0.0188000 -0.0003094 0.0
-0.0181851 -0.0003351 0.0
-0.0175250 -0.0003597 0.0
-0.0168221 -0.0003828 0.0
-0.0160789 -0.0004045 0.0
-0.0152984 -0.0004245 0.0
-0.0144837 -0.0004427 0.0
-0.0136383 -0.0004589 0.0
-0.0127658 -0.0004730 0.0
-0.0118701 -0.0004849 0.0
-0.0109551 -0.0004945 0.0
-0.0100251 -0.0005017 0.0
-0.0090844 -0.0005065 0.0
-0.0081373 -0.0005088 0.0
-0.0071882 -0.0005085 0.0
-0.0062417 -0.0005058 0.0
-0.0053022 -0.0005005 0.0
-0.0043741 -0.0004928 0.0
-0.0034616 -0.0004827 0.0
-0.0025689 -0.0004704 0.0
-0.0017000 -0.0004558 0.0
-0.0008587 -0.0004393 0.0
-0.0000486 -0.0004208 0.0
0.0007271 -0.0004006 0.0
0.0014653 -0.0003788 0.0
0.0021634 -0.0003557 0.0
0.0028190 -0.0003314 0.0
0.0034301 -0.0003061 0.0
0.0039951 -0.0002802 0.0
0.0045127 -0.0002537 0.0
0.0049820 -0.0002269 0.0
0.0054024 -0.0002000 0.0
0.0057740 -0.0001732 0.0
0.0060967 -0.0001467 0.0
0.0063713 -0.0001208 0.0
0.0065985 -0.0000954 0.0
0.0067795 -0.0000709 0.0
0.0069158 -0.0000474 0.0
0.0070090 -0.0000249 0.0
0.0070610 -0.0000036 0.0
0.0070740 0.0000164 0.0
0.0070501 0.0000351 0.0
0.0069918 0.0000524 0.0
0.0069015 0.0000683 0.0
0.0067818 0.0000827 0.0
0.0066352 0.0000958 0.0
0.0064643 0.0001074 0.0
0.0062716 0.0001176 0.0
0.0060596 0.0001265 0.0
0.0058307 0.0001340 0.0
0.0055873 0.0001404 0.0
0.0053315 0.0001457 0.0
0.0050655 0.0001498 0.0
0.0047912 0.0001530 0.0
0.0045105 0.0001553 0.0
0.0042251 0.0001567 0.0
0.0039365 0.0001574 0.0
0.0036463 0.0001574 0.0
0.0033557 0.0001567 0.0
0.0030660 0.0001554 0.0
0.0027786 0.0001536 0.0
0.0024946 0.0001511 0.0
0.0022154 0.0001481 0.0
0.0019423 0.0001443 0.0
0.0016768 0.0001397 0.0
0.0014207 0.0001341 0.0
0.0011761 0.0001273 0.0
0.0009453 0.0001191 0.0
0.0007312 0.0001091 0.0
0.0005371 0.0000971 0.0
0.0003667 0.0000827 0.0
0.0002241 0.0000656 0.0
0.0001133 0.0000459 0.0
0.0000376 0.0000243 0.0
-0.0000019 0.0000036 0.0
-0.0000095 -0.0000095 0.0
0.0000000 0.0000000 0.0
0.0000000 0.0000000 0.0
0.0000152 -0.0000231 0.0
0.0000699 -0.0000700 0.0
0.0001656 -0.0001191 0.0
0.0002985 -0.0001619 0.0
0.0004623 -0.0001954 0.0
0.0006496 -0.0002193 0.0
0.0008528 -0.0002343 0.0
0.0010651 -0.0002415 0.0
0.0012800 -0.0002418 0.0
0.0014923 -0.0002364 0.0
0.0016971 -0.0002263 0.0
0.0018906 -0.0002123 0.0
0.0020696 -0.0001952 0.0
0.0022315 -0.0001757 0.0
0.0023743 -0.0001545 0.0
0.0024966 -0.0001320 0.0
0.0025973 -0.0001088 0.0
0.0026757 -0.0000852 0.0
0.0027315 -0.0000615 0.0
0.0027647 -0.0000380 0.0
0.0027752 -0.0000148 0.0
0.0027634 0.0000079 0.0
0.0027296 0.0000302 0.0
0.0026740 0.0000518 0.0
0.0025972 0.0000730 0.0
0.0024995 0.0000937 0.0
0.0023811 0.0001141 0.0
0.0022422 0.0001342 0.0
0.0020829 0.0001542 0.0
0.0019032 0.0001743 0.0
0.0017030 0.0001945 0.0
0.0014820 0.0002150 0.0
0.0012399 0.0002359 0.0
0.0009760 0.0002574 0.0
0.0006899 0.0002796 0.0
0.0003808 0.0003026 0.0
0.0000480 0.0003265 0.0
-0.0003093 0.0003512 0.0
-0.0006920 0.0003770 0.0
-0.0011010 0.0004038 0.0
-0.0015372 0.0004315 0.0
-0.0020015 0.0004603 0.0
-0.0024946 0.0004900 0.0
-0.0030174 0.0005207 0.0
-0.0035707 0.0005522 0.0
-0.0041552 0.0005845 0.0
-0.0047713 0.0006176 0.0
-0.0054196 0.0006512 0.0
-0.0061004 0.0006853 0.0
-0.0068140 0.0007197 0.0
-0.0075606 0.0007544 0.0
-0.0083399 0.0007892 0.0
-0.0091520 0.0008239 0.0
-0.0099962 0.0008583 0.0
-0.0108723 0.0008923 0.0
-0.0117793 0.0009256 0.0
-0.0127163 0.0009581 0.0
-0.0136824 0.0009896 0.0
-0.0146760 0.0010198 0.0
-0.0156957 0.0010486 0.0
-0.0167396 0.0010756 0.0
-0.0178059 0.0011007 0.0
-0.0188924 0.0011236 0.0
-0.0199965 0.0011441 0.0
-0.0211157 0.0011619 0.0
-0.0222471 0.0011769 0.0
-0.0233876 0.0011887 0.0
-0.0245340 0.0011971 0.0
-0.0256829 0.0012020 0.0
-0.0268306 0.0012030 0.0
-0.0279732 0.0012001 0.0
-0.0291068 0.0011929 0.0
-0.0302273 0.0011814 0.0
-0.0313304 0.0011654 0.0
-0.0324118 0.0011447 0.0
-0.0334670 0.0011192 0.0
-0.0344915 0.0010887 0.0
-0.0354807 0.0010533 0.0
-0.0364301 0.0010129 0.0
-0.0373351 0.0009674 0.0
-0.0381910 0.0009169 0.0
-0.0389934 0.0008613 0.0
-0.0397377 0.0008007 0.0
-0.0404198 0.0007352 0.0
-0.0410352 0.0006650 0.0
-0.0415801 0.0005901 0.0
-0.0420505 0.0005108 0.0
-0.0424426 0.0004273 0.0
-0.0427532 0.0003398 0.0
-0.0429791 0.0002486 0.0
-0.0431173 0.0001541 0.0
-0.0431654 0.0000565 0.0
-0.0431211 -0.0000437 0.0
-0.0429826 -0.0001461 0.0
-0.0427484 -0.0002503 0.0
-0.0424176 -0.0003559 0.0
-0.0419895 -0.0004622 0.0
-0.0414641 -0.0005688 0.0
-0.0408415 -0.0006751 0.0
-0.0401228 -0.0007806 0.0
-0.0393091 -0.0008847 0.0
-0.0384023 -0.0009868 0.0
-0.0374047 -0.0010862 0.0
-0.0363192 -0.0011825 0.0
-0.0351490 -0.0012750 0.0
-0.0338981 -0.0013631 0.0
-0.0325707 -0.0014461 0.0
-0.0311717 -0.0015237 0.0
-0.0297063 -0.0015952 0.0
-0.0281803 -0.0016601 0.0
-0.0265997 -0.0017179 0.0
-0.0249710 -0.0017682 0.0
-0.0233011 -0.0018107 0.0
-0.0215970 -0.0018450 0.0
-0.0198661 -0.0018708 0.0
-0.0181159 -0.0018879 0.0
-0.0163542 -0.0018961 0.0
-0.0145888 -0.0018955 0.0
-0.0128274 -0.0018860 0.0
-0.0110780 -0.0018677 0.0
-0.0093481 -0.0018407 0.0
-0.0076454 -0.0018052 0.0
-0.0059772 -0.0017616 0.0
-0.0043507 -0.0017102 0.0
-0.0027725 -0.0016514 0.0
-0.0012491 -0.0015858 0.0
0.0002136 -0.0015139 0.0
0.0016102 -0.0014363 0.0
0.0029357 -0.0013537 0.0
0.0041856 -0.0012667 0.0
0.0053563 -0.0011761 0.0
0.0064446 -0.0010826 0.0
0.0074478 -0.0009869 0.0
0.0083642 -0.0008898 0.0
0.0091924 -0.0007920 0.0
0.0099319 -0.0006943 0.0
0.0105826 -0.0005973 0.0
0.0111451 -0.0005018 0.0
0.0116206 -0.0004082 0.0
0.0120109 -0.0003173 0.0
0.0123182 -0.0002294 0.0
0.0125452 -0.0001452 0.0
0.0126950 -0.0000650 0.0
0.0127712 0.0000109 0.0
0.0127775 0.0000821 0.0
0.0127180 0.0001486 0.0
0.0125969 0.0002100 0.0
0.0124188 0.0002663 0.0
0.0121881 0.0003175 0.0
0.0119094 0.0003636 0.0
0.0115873 0.0004047 0.0
0.0112262 0.0004409 0.0
0.0108307 0.0004723 0.0
0.0104049 0.0004992 0.0
0.0099532 0.0005218 0.0
0.0094793 0.0005403 0.0
0.0089871 0.0005550 0.0
0.0084801 0.0005661 0.0
0.0079617 0.0005740 0.0
0.0074350 0.0005789 0.0
0.0069028 0.0005809 0.0
0.0063680 0.0005802 0.0
0.0058333 0.0005770 0.0
0.0053012 0.0005714 0.0
0.0047742 0.0005632 0.0
0.0042551 0.0005524 0.0
0.0037467 0.0005386 0.0
0.0032520 0.0005216 0.0
0.0027744 0.0005007 0.0
0.0023178 0.0004754 0.0
0.0018867 0.0004449 0.0
0.0014861 0.0004082 0.0
0.0011216 0.0003645 0.0
0.0007993 0.0003130 0.0
0.0005258 0.0002534 0.0
0.0003068 0.0001865 0.0
0.0001471 0.0001152 0.0
0.0000478 0.0000471 0.0
0.0000039 -0.0000019 0.0
0.0000000 0.0000000 0.0
0.0000000 0.0000000 0.0
0.0000310 -0.0000708 0.0
0.0001191 -0.0001656 0.0
0.0002598 -0.0002597 0.0
0.0004463 -0.0003412 0.0
0.0006704 -0.0004057 0.0
0.0009231 -0.0004522 0.0
0.0011950 -0.0004815 0.0
0.0014774 -0.0004953 0.0
0.0017623 -0.0004954 0.0
0.0020426 -0.0004837 0.0
0.0023121 -0.0004622 0.0
0.0025655 -0.0004325 0.0
0.0027983 -0.0003962 0.0
0.0030070 -0.0003547 0.0
0.0031888 -0.0003094 0.0
0.0033414 -0.0002612 0.0
0.0034633 -0.0002112 0.0
0.0035534 -0.0001601 0.0
0.0036111 -0.0001086 0.0
0.0036359 -0.0000572 0.0
0.0036279 -0.0000062 0.0
0.0035872 0.0000440 0.0
0.0035141 0.0000933 0.0
0.0034089 0.0001418 0.0
0.0032720 0.0001893 0.0
0.0031037 0.0002361 0.0
0.0029042 0.0002822 0.0
0.0026738 0.0003280 0.0
0.0024123 0.0003737 0.0
0.0021198 0.0004195 0.0
0.0017959 0.0004657 0.0
0.0014402 0.0005127 0.0
0.0010521 0.0005606 0.0
0.0006309 0.0006098 0.0
0.0001757 0.0006605 0.0
-0.0003144 0.0007128 0.0
-0.0008404 0.0007670 0.0
-0.0014035 0.0008231 0.0
-0.0020049 0.0008811 0.0
-0.0026457 0.0009413 0.0
-0.0033270 0.0010035 0.0
-0.0040501 0.0010677 0.0
-0.0048159 0.0011339 0.0
-0.0056255 0.0012018 0.0
-0.0064798 0.0012715 0.0
-0.0073796 0.0013426 0.0
-0.0083254 0.0014150 0.0
-0.0093177 0.0014885 0.0
-0.0103568 0.0015627 0.0
-0.0114429 0.0016374 0.0
-0.0125757 0.0017123 0.0
-0.0137549 0.0017869 0.0
-0.0149799 0.0018611 0.0
-0.0162499 0.0019343 0.0
-0.0175637 0.0020062 0.0
-0.0189200 0.0020763 0.0
-0.0203170 0.0021442 0.0
-0.0217529 0.0022094 0.0
-0.0232253 0.0022715 0.0
-0.0247316 0.0023300 0.0
-0.0262691 0.0023843 0.0
-0.0278344 0.0024340 0.0
-0.0294241 0.0024786 0.0
-0.0310345 0.0025175 0.0
-0.0326614 0.0025503 0.0
-0.0343006 0.0025765 0.0
-0.0359472 0.0025956 0.0
-0.0375966 0.0026071 0.0
-0.0392435 0.0026106 0.0
-0.0408825 0.0026058 0.0
-0.0425082 0.0025920 0.0
-0.0441147 0.0025691 0.0
-0.0456962 0.0025367 0.0
-0.0472467 0.0024946 0.0
-0.0487599 0.0024423 0.0
-0.0502297 0.0023799 0.0
-0.0516499 0.0023070 0.0
-0.0530141 0.0022236 0.0
-0.0543161 0.0021297 0.0
-0.0555497 0.0020252 0.0
-0.0567089 0.0019102 0.0
-0.0577875 0.0017849 0.0
-0.0587797 0.0016493 0.0
-0.0596800 0.0015038 0.0
-0.0604829 0.0013487 0.0
-0.0611831 0.0011843 0.0
-0.0617759 0.0010111 0.0
-0.0622566 0.0008296 0.0
-0.0626211 0.0006403 0.0
-0.0628656 0.0004439 0.0
-0.0629866 0.0002410 0.0
-0.0629813 0.0000325 0.0
-0.0628472 -0.0001809 0.0
-0.0625823 -0.0003982 0.0
-0.0621852 -0.0006187 0.0
-0.0616551 -0.0008412 0.0
-0.0609917 -0.0010647 0.0
-0.0601952 -0.0012882 0.0
-0.0592666 -0.0015106 0.0
-0.0582074 -0.0017308 0.0
-0.0570198 -0.0019475 0.0
-0.0557067 -0.0021596 0.0
-0.0542713 -0.0023658 0.0
-0.0527179 -0.0025651 0.0
-0.0510512 -0.0027562 0.0
-0.0492764 -0.0029380 0.0
-0.0473996 -0.0031092 0.0
-0.0454272 -0.0032689 0.0
-0.0433665 -0.0034159 0.0
-0.0412249 -0.0035493 0.0
-0.0390108 -0.0036682 0.0
-0.0367325 -0.0037716 0.0
-0.0343992 -0.0038590 0.0
-0.0320202 -0.0039295 0.0
-0.0296052 -0.0039828 0.0
-0.0271641 -0.0040183 0.0
-0.0247070 -0.0040359 0.0
-0.0222442 -0.0040353 0.0
-0.0197859 -0.0040166 0.0
-0.0173424 -0.0039798 0.0
-0.0149238 -0.0039254 0.0
-0.0125401 -0.0038536 0.0
-0.0102011 -0.0037651 0.0
-0.0079162 -0.0036606 0.0
-0.0056944 -0.0035409 0.0
-0.0035443 -0.0034069 0.0
-0.0014739 -0.0032598 0.0
0.0005093 -0.0031008 0.0
0.0023985 -0.0029311 0.0
0.0041875 -0.0027520 0.0
0.0058711 -0.0025651 0.0
0.0074445 -0.0023717 0.0
0.0089040 -0.0021733 0.0
0.0102466 -0.0019715 0.0
0.0114700 -0.0017677 0.0
0.0125731 -0.0015633 0.0
0.0135552 -0.0013599 0.0
0.0144167 -0.0011588 0.0
0.0151586 -0.0009613 0.0
0.0157827 -0.0007685 0.0
0.0162915 -0.0005817 0.0
0.0166882 -0.0004017 0.0
0.0169765 -0.0002296 0.0
0.0171608 -0.0000660 0.0
0.0172457 0.0000883 0.0
0.0172365 0.0002330 0.0
0.0171387 0.0003675 0.0
0.0169579 0.0004916 0.0
0.0167002 0.0006052 0.0
0.0163717 0.0007082 0.0
0.0159784 0.0008008 0.0
0.0155265 0.0008830 0.0
0.0150221 0.0009553 0.0
0.0144710 0.0010179 0.0
0.0138791 0.0010713 0.0
0.0132520 0.0011159 0.0
0.0125950 0.0011522 0.0
0.0119132 0.0011807 0.0
0.0112115 0.0012019 0.0
0.0104945 0.0012163 0.0
0.0097666 0.0012243 0.0
0.0090318 0.0012262 0.0
0.0082944 0.0012223 0.0
0.0075582 0.0012126 0.0
0.0068272 0.0011972 0.0
0.0061053 0.0011756 0.0
0.0053969 0.0011474 0.0
0.0047064 0.0011120 0.0
0.0040388 0.0010682 0.0
0.0033995 0.0010150 0.0
0.0027945 0.0009508 0.0
0.0022306 0.0008743 0.0
0.0017151 0.0007838 0.0
0.0012556 0.0006785 0.0
0.0008599 0.0005581 0.0
0.0005352 0.0004245 0.0
0.0002870 0.0002834 0.0
0.0001179 0.0001468 0.0
0.0000252 0.0000383 0.0
0.0000000 0.0000000 0.0
0.0000000 0.0000000 0.0
0.0000444 -0.0001422 0.0
0.0001622 -0.0002987 0.0
0.0003421 -0.0004463 0.0
0.0005737 -0.0005725 0.0
0.0008467 -0.0006721 0.0
0.0011504 -0.0007438 0.0
0.0014742 -0.0007886 0.0
0.0018083 -0.0008088 0.0
0.0021434 -0.0008071 0.0
0.0024711 -0.0007862 0.0
0.0027842 -0.0007491 0.0
0.0030764 -0.0006985 0.0
0.0033423 -0.0006367 0.0
0.0035775 -0.0005662 0.0
0.0037785 -0.0004889 0.0
0.0039424 -0.0004066 0.0
0.0040671 -0.0003208 0.0
0.0041512 -0.0002329 0.0
0.0041936 -0.0001440 0.0
0.0041937 -0.0000548 0.0
0.0041513 0.0000339 0.0
0.0040663 0.0001217 0.0
0.0039388 0.0002085 0.0
0.0037691 0.0002939 0.0
0.0035573 0.0003782 0.0
0.0033038 0.0004615 0.0
0.0030086 0.0005440 0.0
0.0026717 0.0006261 0.0
0.0022932 0.0007082 0.0
0.0018726 0.0007907 0.0
0.0014096 0.0008741 0.0
0.0009035 0.0009588 0.0
0.0003535 0.0010452 0.0
-0.0002413 0.0011338 0.0
-0.0008819 0.0012249 0.0
-0.0015696 0.0013187 0.0
-0.0023057 0.0014156 0.0
-0.0030914 0.0015157 0.0
-0.0039282 0.0016191 0.0
-0.0048175 0.0017259 0.0
-0.0057605 0.0018359 0.0
-0.0067586 0.0019492 0.0
-0.0078129 0.0020655 0.0
-0.0089244 0.0021846 0.0
-0.0100941 0.0023063 0.0
-0.0113227 0.0024301 0.0
-0.0126107 0.0025557 0.0
-0.0139583 0.0026826 0.0
-0.0153655 0.0028104 0.0
-0.0168322 0.0029386 0.0
-0.0183578 0.0030664 0.0
-0.0199413 0.0031934 0.0
-0.0215818 0.0033188 0.0
-0.0232775 0.0034421 0.0
-0.0250267 0.0035624 0.0
-0.0268271 0.0036789 0.0
-0.0286761 0.0037910 0.0
-0.0305708 0.0038978 0.0
-0.0325077 0.0039986 0.0
-0.0344831 0.0040924 0.0
-0.0364930 0.0041784 0.0
-0.0385328 0.0042558 0.0
-0.0405976 0.0043237 0.0
-0.0426822 0.0043814 0.0
-0.0447812 0.0044280 0.0
-0.0468886 0.0044627 0.0
-0.0489982 0.0044847 0.0
-0.0511036 0.0044933 0.0
-0.0531980 0.0044879 0.0
-0.0552746 0.0044677 0.0
-0.0573261 0.0044323 0.0
-0.0593453 0.0043810 0.0
-0.0613246 0.0043134 0.0
-0.0632567 0.0042291 0.0
-0.0651337 0.0041277 0.0
-0.0669483 0.0040091 0.0
-0.0686926 0.0038731 0.0
-0.0703591 0.0037196 0.0
-0.0719404 0.0035486 0.0
-0.0734291 0.0033602 0.0
-0.0748180 0.0031546 0.0
-0.0761003 0.0029322 0.0
-0.0772690 0.0026932 0.0