# vtk DataFile Version 2.0
Lid Driven Cavity Flow
ASCII
DATASET STRUCTURED_GRID
DIMENSIONS 181 181 1
POINTS 32761 float
0.0000000 0.0000000 0.0
0.0055556 0.0000000 0.0
0.0111111 0.0000000 0.0
0.0166667 0.0000000 0.0
0.0222222 0.0000000 0.0
0.0277778 0.0000000 0.0
0.0333333 0.0000000 0.0
0.0388889 0.0000000 0.0
0.0444444 0.0000000 0.0
0.0500000 0.0000000 0.0
0.0555556 0.0000000 0.0
0.0611111 0.0000000 0.0
0.0666667 0.0000000 0.0
0.0722222 0.0000000 0.0
0.0777778 0.0000000 0.0
0.0833333 0.0000000 0.0
0.0888889 0.0000000 0.0
0.0944444 0.0000000 0.0
0.1000000 0.0000000 0.0
0.1055556 0.0000000 0.0
0.1111111 0.0000000 0.0
0.1166667 0.0000000 0.0
0.1222222 0.0000000 0.0
0.1277778 0.0000000 0.0
0.1333333 0.0000000 0.0
0.1388889 0.0000000 0.0
0.1444444 0.0000000 0.0
0.1500000 0.0000000 0.0
0.1555556 0.0000000 0.0
0.1611111 0.0000000 0.0
0.1666667 0.0000000 0.0
0.1722222 0.0000000 0.0
0.1777778 0.0000000 0.0
0.1833333 0.0000000 0.0
0.1888889 0.0000000 0.0
0.1944444 0.0000000 0.0
0.2000000 0.0000000 0.0
0.2055556 0.0000000 0.0
0.2111111 0.0000000 0.0
0.2166667 0.0000000 0.0
0.2222222 0.0000000 0.0
0.2277778 0.0000000 0.0
0.2333333 0.0000000 0.0
0.2388889 0.0000000 0.0
0.2444444 0.0000000 0.0
0.2500000 0.0000000 0.0
0.2555556 0.0000000 0.0
0.2611111 0.0000000 0.0
0.2666667 0.0000000 0.0
0.2722222 0.0000000 0.0
0.2777778 0.0000000 0.0
0.2833333 0.0000000 0.0
0.2888889 0.0000000 0.0
0.2944444 0.0000000 0.0
0.3000000 0.0000000 0.0
0.3055556 0.0000000 0.0
0.3111111 0.0000000 0.0
0.3166667 0.0000000 0.0
0.3222222 0.0000000 0.0
0.3277778 0.0000000 0.0
0.3333333 0.0000000 0.0
0.3388889 0.0000000 0.0
0.3444444 0.0000000 0.0
0.3500000 0.0000000 0.0
0.3555556 0.0000000 0.0
0.3611111 0.0000000 0.0
0.3666667 0.0000000 0.0
0.3722222 0.0000000 0.0
0.3777778 0.0000000 0.0
0.3833333 0.0000000 0.0
0.3888889 0.0000000 0.0
0.3944444 0.0000000 0.0
0.4000000 0.0000000 0.0
0.4055556 0.0000000 0.0
0.4111111 0.0000000 0.0
0.4166667 0.0000000 0.0
0.4222222 0.0000000 0.0
0.4277778 0.0000000 0.0
0.4333333 0.0000000 0.0
0.4388889 0.0000000 0.0
0.4444444 0.0000000 0.0
0.4500000 0.0000000 0.0
0.4555556 0.0000000 0.0
0.4611111 0.0000000 0.0
0.4666667 0.0000000 0.0
0.4722222 0.0000000 0.0
0.4777778 0.0000000 0.0
0.4833333 0.0000000 0.0
0.4888889 0.0000000 0.0
0.4944444 0.0000000 0.0
0.5000000 0.0000000 0.0
0.5055556 0.0000000 0.0
0.5111111 0.0000000 0.0
0.5166667 0.0000000 0.0
0.5222222 0.0000000 0.0
0.5277778 0.0000000 0.0
0.5333333 0.0000000 0.0
0.5388889 0.0000000 0.0
0.5444444 0.0000000 0.0
0.5500000 0.0000000 0.0
0.5555556 0.0000000 0.0
0.5611111 0.0000000 0.0
0.5666667 0.0000000 0.0
0.5722222 0.0000000 0.0
0.5777778 0.0000000 0.0
0.5833333 0.0000000 0.0
0.5888889 0.0000000 0.0
0.5944444 0.0000000 0.0
0.6000000 0.0000000 0.0
0.6055556 0.0000000 0.0
0.6111111 0.0000000 0.0
0.6166667 0.0000000 0.0
0.6222222 0.0000000 0.0
0.6277778 0.0000000 0.0
0.6333333 0.0000000 0.0
0.6388889 0.0000000 0.0
0.6444444 0.0000000 0.0
0.6500000 0.0000000 0.0
0.6555556 0.0000000 0.0
0.6611111 0.0000000 0.0
0.6666667 0.0000000 0.0
0.6722222 0.0000000 0.0
0.6777778 0.0000000 0.0
0.6833333 0.0000000 0.0
0.6888889 0.0000000 0.0
0.6944444 0.0000000 0.0
0.7000000 0.0000000 0.0
0.7055556 0.0000000 0.0
0.7111111 0.0000000 0.0
0.7166667 0.0000000 0.0
0.7222222 0.0000000 0.0
0.7277778 0.0000000 0.0
0.7333333 0.0000000 0.0
0.7388889 0.0000000 0.0
0.7444444 0.0000000 0.0
0.7500000 0.0000000 0.0
0.7555556 0.0000000 0.0
0.7611111 0.0000000 0.0
0.7666667 0.0000000 0.0
0.7722222 0.0000000 0.0
0.7777778 0.0000000 0.0
0.7833333 0.0000000 0.0
0.7888889 0.0000000 0.0
0.7944444 0.0000000 0.0
0.8000000 0.0000000 0.0
0.8055556 0.0000000 0.0
0.8111111 0.0000000 0.0
0.8166667 0.0000000 0.0
0.8222222 0.0000000 0.0
0.8277778 0.0000000 0.0
0.8333333 0.0000000 0.0
0.8388889 0.0000000 0.0
0.8444444 0.0000000 0.0
0.8500000 0.0000000 0.0
0.8555556 0.0000000 0.0
0.8611111 0.0000000 0.0
0.8666667 0.0000000 0.0
0.8722222 0.0000000 0.0
0.8777778 0.0000000 0.0
0.8833333 0.0000000 0.0
0.8888889 0.0000000 0.0
0.8944444 0.0000000 0.0
0.9000000 0.0000000 0.0
0.9055556 0.0000000 0.0
0.9111111 0.0000000 0.0
0.9166667 0.0000000 0.0
0.9222222 0.0000000 0.0
0.9277778 0.0000000 0.0
0.9333333 0.0000000 0.0
0.9388889 0.0000000 0.0
0.9444444 0.0000000 0.0
0.9500000 0.0000000 0.0
0.9555556 0.0000000 0.0
0.9611111 0.0000000 0.0
0.9666667 0.0000000 0.0
0.9722222 0.0000000 0.0
0.9777778 0.0000000 0.0
0.9833333 0.0000000 0.0
0.9888889 0.0000000 0.0
0.9944444 0.0000000 0.0
1.0000000 0.0000000 0.0
0.0000000 0.0055556 0.0
0.0055556 0.0055556 0.0
0.0111111 0.0055556 0.0
0.0166667 0.0055556 0.0
0.0222222 0.0055556 0.0
0.0277778 0.0055556 0.0
0.0333333 0.0055556 0.0
0.0388889 0.0055556 0.0
0.0444444 0.0055556 0.0
0.0500000 0.0055556 0.0
0.0555556 0.0055556 0.0
0.0611111 0.0055556 0.0
0.0666667 0.0055556 0.0
0.0722222 0.0055556 0.0
0.0777778 0.0055556 0.0
0.0833333 0.0055556 0.0
0.0888889 0.0055556 0.0
0.0944444 0.0055556 0.0
0.1000000 0.0055556 0.0
0.1055556 0.0055556 0.0
0.1111111 0.0055556 0.0
0.1166667 0.0055556 0.0
0.1222222 0.0055556 0.0
0.1277778 0.0055556 0.0
0.1333333 0.0055556 0.0
0.1388889 0.0055556 0.0
0.1444444 0.0055556 0.0
0.1500000 0.0055556 0.0
0.1555556 0.0055556 0.0
0.1611111 0.0055556 0.0
0.1666667 0.0055556 0.0
0.1722222 0.0055556 0.0
0.1777778 0.0055556 0.0
0.1833333 0.0055556 0.0
0.1888889 0.0055556 0.0
0.1944444 0.0055556 0.0
0.2000000 0.0055556 0.0
0.2055556 0.0055556 0.0
0.2111111 0.0055556 0.0
0.2166667 0.0055556 0.0
0.2222222 0.0055556 0.0
0.2277778 0.0055556 0.0
0.2333333 0.0055556 0.0
0.2388889 0.0055556 0.0
0.2444444 0.0055556 0.0
0.2500000 0.0055556 0.0
0.2555556 0.0055556 0.0
0.2611111 0.0055556 0.0
0.2666667 0.0055556 0.0
0.2722222 0.0055556 0.0
0.2777778 0.0055556 0.0
0.2833333 0.0055556 0.0
0.2888889 0.0055556 0.0
0.2944444 0.0055556 0.0
0.3000000 0.0055556 0.0
0.3055556 0.0055556 0.0
0.3111111 0.0055556 0.0
0.3166667 0.0055556 0.0
0.3222222 0.0055556 0.0
0.3277778 0.0055556 0.0
0.3333333 0.0055556 0.0
0.3388889 0.0055556 0.0
0.3444444 0.0055556 0.0
0.3500000 0.0055556 0.0
0.3555556 0.0055556 0.0
0.3611111 0.0055556 0.0
0.3666667 0.0055556 0.0
0.3722222 0.0055556 0.0
0.3777778 0.0055556 0.0
0.3833333 0.0055556 0.0
0.3888889 0.0055556 0.0
0.3944444 0.0055556 0.0
0.4000000 0.0055556 0.0
0.4055556 0.0055556 0.0
0.4111111 0.0055556 0.0
0.4166667 0.0055556 0.0
0.4222222 0.0055556 0.0
0.4277778 0.0055556 0.0
0.4333333 0.0055556 0.0
0.4388889 0.0055556 0.0
0.4444444 0.0055556 0.0
0.4500000 0.0055556 0.0
0.4555556 0.0055556 0.0
0.4611111 0.0055556 0.0
0.4666667 0.0055556 0.0
0.4722222 0.0055556 0.0
0.4777778 0.0055556 0.0
0.4833333 0.0055556 0.0
0.4888889 0.0055556 0.0
0.4944444 0.0055556 0.0
0.5000000 0.0055556 0.0
0.5055556 0.0055556 0.0
0.5111111 0.0055556 0.0
0.5166667 0.0055556 0.0
0.5222222 0.0055556 0.0
0.5277778 0.0055556 0.0
0.5333333 0.0055556 0.0
0.5388889 0.0055556 0.0
0.5444444 0.0055556 0.0
0.5500000 0.0055556 0.0
0.5555556 0.0055556 0.0
0.5611111 0.0055556 0.0
0.5666667 0.0055556 0.0
0.5722222 0.0055556 0.0
0.5777778 0.0055556 0.0
0.5833333 0.0055556 0.0
0.5888889 0.0055556 0.0
0.5944444 0.0055556 0.0
0.6000000 0.0055556 0.0
0.6055556 0.0055556 0.0
0.6111111 0.0055556 0.0
0.6166667 0.0055556 0.0
0.6222222 0.0055556 0.0
0.6277778 0.0055556 0.0
0.6333333 0.0055556 0.0
0.6388889 0.0055556 0.0
0.6444444 0.0055556 0.0
0.6500000 0.0055556 0.0
0.6555556 0.0055556 0.0
0.6611111 0.0055556 0.0
0.6666667 0.0055556 0.0
0.6722222 0.0055556 0.0
0.6777778 0.0055556 0.0
0.6833333 0.0055556 0.0
0.6888889 0.0055556 0.0
0.6944444 0.0055556 0.0
0.7000000 0.0055556 0.0
0.7055556 0.0055556 0.0
0.7111111 0.0055556 0.0
0.7166667 0.0055556 0.0
0.7222222 0.0055556 0.0
0.7277778 0.0055556 0.0
0.7333333 0.0055556 0.0
0.7388889 0.0055556 0.0
0.7444444 0.0055556 0.0
0.7500000 0.0055556 0.0
0.7555556 0.0055556 0.0
0.7611111 0.0055556 0.0
0.7666667 0.0055556 0.0
0.7722222 0.0055556 0.0
0.7777778 0.0055556 0.0
0.7833333 0.0055556 0.0
0.7888889 0.0055556 0.0
0.7944444 0.0055556 0.0
0.8000000 0.0055556 0.0
0.8055556 0.0055556 0.0
0.8111111 0.0055556 0.0
0.8166667 0.0055556 0.0
0.8222222 0.0055556 0.0
0.8277778 0.0055556 0.0
0.8333333 0.0055556 0.0
0.8388889 0.0055556 0.0
0.8444444 0.0055556 0.0
0.8500000 0.0055556 0.0
0.8555556 0.0055556 0.0
0.8611111 0.0055556 0.0
0.8666667 0.0055556 0.0
0.8722222 0.0055556 0.0
0.8777778 0.0055556 0.0
0.8833333 0.0055556 0.0
0.8888889 0.0055556 0.0
0.8944444 0.0055556 0.0
0.9000000 0.0055556 0.0
0.9055556 0.0055556 0.0
0.9111111 0.0055556 0.0
0.9166667 0.0055556 0.0
0.9222222 0.0055556 0.0
0.9277778 0.0055556 0.0
0.9333333 0.0055556 0.0
0.9388889 0.0055556 0.0
0.9444444 0.0055556 0.0
0.9500000 0.0055556 0.0
0.9555556 0.0055556 0.0
0.9611111 0.0055556 0.0
0.9666667 0.0055556 0.0
0.9722222 0.0055556 0.0
0.9777778 0.0055556 0.0
0.9833333 0.0055556 0.0
0.9888889 0.0055556 0.0
0.9944444 0.0055556 0.0
1.0000000 0.0055556 0.0
0.0000000 0.0111111 0.0
0.0055556 0.0111111 0.0
0.0111111 0.0111111 0.0
0.0166667 0.0111111 0.0
0.0222222 0.0111111 0.0
0.0277778 0.0111111 0.0
0.0333333 0.0111111 0.0
0.0388889 0.0111111 0.0
0.0444444 0.0111111 0.0
0.0500000 0.0111111 0.0
0.0555556 0.0111111 0.0
0.0611111 0.0111111 0.0
0.0666667 0.0111111 0.0
0.0722222 0.0111111 0.0
0.0777778 0.0111111 0.0
0.0833333 0.0111111 0.0
0.0888889 0.0111111 0.0
0.0944444 0.0111111 0.0
0.1000000 0.0111111 0.0
0.1055556 0.0111111 0.0
0.1111111 0.0111111 0.0
0.1166667 0.0111111 0.0
0.1222222 0.0111111 0.0
0.1277778 0.0111111 0.0
0.1333333 0.0111111 0.0
0.1388889 0.0111111 0.0
0.1444444 0.0111111 0.0
0.1500000 0.0111111 0.0
0.1555556 0.0111111 0.0
0.1611111 0.0111111 0.0
0.1666667 0.0111111 0.0
0.1722222 0.0111111 0.0
0.1777778 0.0111111 0.0
0.1833333 0.0111111 0.0
0.1888889 0.0111111 0.0
0.1944444 0.0111111 0.0
0.2000000 0.0111111 0.0
0.2055556 0.0111111 0.0
0.2111111 0.0111111 0.0
0.2166667 0.0111111 0.0
0.2222222 0.0111111 0.0
0.2277778 0.0111111 0.0
0.2333333 0.0111111 0.0
0.2388889 0.0111111 0.0
0.2444444 0.0111111 0.0
0.2500000 0.0111111 0.0
0.2555556 0.0111111 0.0
0.2611111 0.0111111 0.0
0.2666667 0.0111111 0.0
[...]
POINT_DATA 32761
VECTORS velocity float
0.0000000 0.0000000 0.0
0.0000000 0.0000000 0.0
0.0000000 0.0000000 0.0
0.0000000 0.0000000 0.0
0.0000000 0.0000000 0.0
0.0000000 0.0000000 0.0
0.0000000 0.0000000 0.0
0.0000000 0.0000000 0.0
0.0000000 0.0000000 0.0
0.0000000 0.0000000 0.0
0.0000000 0.0000000 0.0
0.0000000 0.0000000 0.0
0.0000000 0.0000000 0.0
0.0000000 0.0000000 0.0
0.0000000 0.0000000 0.0
0.0000000 0.0000000 0.0
0.0000000 0.0000000 0.0
0.0000000 0.0000000 0.0
0.0000000 0.0000000 0.0
0.0000000 0.0000000 0.0
0.0000000 0.0000000 0.0
0.0000000 0.0000000 0.0
0.0000000 0.0000000 0.0
0.0000000 0.0000000 0.0
0.0000000 0.0000000 0.0
0.0000000 0.0000000 0.0
0.0000000 0.0000000 0.0
0.0000000 0.0000000 0.0
0.0000000 0.0000000 0.0
0.0000000 0.0000000 0.0
0.0000000 0.0000000 0.0
0.0000000 0.0000000 0.0
0.0000000 0.0000000 0.0
0.0000000 0.0000000 0.0
0.0000000 0.0000000 0.0
0.0000000 0.0000000 0.0
0.0000000 0.0000000 0.0
0.0000000 0.0000000 0.0
0.0000000 0.0000000 0.0
0.0000000 0.0000000 0.0
0.0000000 0.0000000 0.0
0.0000000 0.0000000 0.0
0.0000000 0.0000000 0.0
0.0000000 0.0000000 0.0
0.0000000 0.0000000 0.0
0.0000000 0.0000000 0.0
0.0000000 0.0000000 0.0
0.0000000 0.0000000 0.0
0.0000000 0.0000000 0.0
0.0000000 0.0000000 0.0
0.0000000 0.0000000 0.0
0.0000000 0.0000000 0.0
0.0000000 0.0000000 0.0
0.0000000 0.0000000 0.0
0.0000000 0.0000000 0.0
0.0000000 0.0000000 0.0
0.0000000 0.0000000 0.0
0.0000000 0.0000000 0.0
0.0000000 0.0000000 0.0
0.0000000 0.0000000 0.0
0.0000000 0.0000000 0.0
0.0000000 0.0000000 0.0
0.0000000 0.0000000 0.0
0.0000000 0.0000000 0.0
0.0000000 0.0000000 0.0
0.0000000 0.0000000 0.0
0.0000000 0.0000000 0.0
0.0000000 0.0000000 0.0
0.0000000 0.0000000 0.0
0.0000000 0.0000000 0.0
0.0000000 0.0000000 0.0
0.0000000 0.0000000 0.0
0.0000000 0.0000000 0.0
0.0000000 0.0000000 0.0
0.0000000 0.0000000 0.0
0.0000000 0.0000000 0.0
0.0000000 0.0000000 0.0
0.0000000 0.0000000 0.0
0.0000000 0.0000000 0.0
0.0000000 0.0000000 0.0
0.0000000 0.0000000 0.0
0.0000000 0.0000000 0.0
0.0000000 0.0000000 0.0
0.0000000 0.0000000 0.0
0.0000000 0.0000000 0.0
0.0000000 0.0000000 0.0
0.0000000 0.0000000 0.0
0.0000000 0.0000000 0.0
0.0000000 0.0000000 0.0
0.0000000 0.0000000 0.0
0.0000000 0.0000000 0.0
0.0000000 0.0000000 0.0
0.0000000 0.0000000 0.0
0.0000000 0.0000000 0.0
0.0000000 0.0000000 0.0
0.0000000 0.0000000 0.0
0.0000000 0.0000000 0.0
0.0000000 0.0000000 0.0
0.0000000 0.0000000 0.0
0.0000000 0.0000000 0.0
0.0000000 0.0000000 0.0
0.0000000 0.0000000 0.0
0.0000000 0.0000000 0.0
0.0000000 0.0000000 0.0
0.0000000 0.0000000 0.0
0.0000000 0.0000000 0.0
0.0000000 0.0000000 0.0
0.0000000 0.0000000 0.0
0.0000000 0.0000000 0.0
0.0000000 0.0000000 0.0
0.0000000 0.0000000 0.0
0.0000000 0.0000000 0.0
0.0000000 0.0000000 0.0
0.0000000 0.0000000 0.0
0.0000000 0.0000000 0.0
0.0000000 0.0000000 0.0
0.0000000 0.0000000 0.0
0.0000000 0.0000000 0.0
0.0000000 0.0000000 0.0
0.0000000 0.0000000 0.0
0.0000000 0.0000000 0.0
0.0000000 0.0000000 0.0
0.0000000 0.0000000 0.0
0.0000000 0.0000000 0.0
0.0000000 0.0000000 0.0
0.0000000 0.0000000 0.0
0.0000000 0.0000000 0.0
0.0000000 0.0000000 0.0
0.0000000 0.0000000 0.0
0.0000000 0.0000000 0.0
0.0000000 0.0000000 0.0
0.0000000 0.0000000 0.0
0.0000000 0.0000000 0.0
0.0000000 0.0000000 0.0
0.0000000 0.0000000 0.0
0.0000000 0.0000000 0.0
0.0000000 0.0000000 0.0
0.0000000 0.0000000 0.0
0.0000000 0.0000000 0.0
0.0000000 0.0000000 0.0
0.0000000 0.0000000 0.0
0.0000000 0.0000000 0.0
0.0000000 0.0000000 0.0
0.0000000 0.0000000 0.0
0.0000000 0.0000000 0.0
0.0000000 0.0000000 0.0
0.0000000 0.0000000 0.0
0.0000000 0.0000000 0.0
0.0000000 0.0000000 0.0
0.0000000 0.0000000 0.0
0.0000000 0.0000000 0.0
0.0000000 0.0000000 0.0
0.0000000 0.0000000 0.0
0.0000000 0.0000000 0.0
0.0000000 0.0000000 0.0
0.0000000 0.0000000 0.0
0.0000000 0.0000000 0.0
0.0000000 0.0000000 0.0
0.0000000 0.0000000 0.0
0.0000000 0.0000000 0.0
0.0000000 0.0000000 0.0
0.0000000 0.0000000 0.0
0.0000000 0.0000000 0.0
0.0000000 0.0000000 0.0
0.0000000 0.0000000 0.0
0.0000000 0.0000000 0.0
0.0000000 0.0000000 0.0
0.0000000 0.0000000 0.0
0.0000000 0.0000000 0.0
0.0000000 0.0000000 0.0
0.0000000 0.0000000 0.0
0.0000000 0.0000000 0.0
0.0000000 0.0000000 0.0
0.0000000 0.0000000 0.0
0.0000000 0.0000000 0.0
0.0000000 0.0000000 0.0
0.0000000 0.0000000 0.0
0.0000000 0.0000000 0.0
0.0000000 0.0000000 0.0
0.0000000 0.0000000 0.0
0.0000037 0.0000000 0.0
0.0000000 0.0000000 0.0
-0.0000075 0.0000073 0.0
0.0000141 -0.0000141 0.0
0.0000815 -0.0000438 0.0
0.0001982 -0.0000733 0.0
0.0003608 -0.0000992 0.0
0.0005630 -0.0001204 0.0
0.0007967 -0.0001364 0.0
0.0010532 -0.0001472 0.0
0.0013240 -0.0001528 0.0
0.0016004 -0.0001537 0.0
0.0018747 -0.0001504 0.0
0.0021400 -0.0001433 0.0
0.0023904 -0.0001333 0.0
0.0026213 -0.0001211 0.0
0.0028293 -0.0001074 0.0
0.0030125 -0.0000930 0.0
0.0031699 -0.0000786 0.0
0.0033018 -0.0000648 0.0
0.0034097 -0.0000521 0.0
0.0034955 -0.0000409 0.0
0.0035619 -0.0000315 0.0
0.0036121 -0.0000240 0.0
0.0036492 -0.0000185 0.0
0.0036766 -0.0000150 0.0
0.0036973 -0.0000131 0.0
0.0037141 -0.0000128 0.0
0.0037292 -0.0000137 0.0
0.0037442 -0.0000154 0.0
0.0037601 -0.0000176 0.0
0.0037774 -0.0000199 0.0
0.0037956 -0.0000219 0.0
0.0038139 -0.0000232 0.0
0.0038305 -0.0000236 0.0
0.0038435 -0.0000228 0.0
0.0038505 -0.0000207 0.0
0.0038488 -0.0000171 0.0
0.0038355 -0.0000120 0.0
0.0038076 -0.0000055 0.0
0.0037623 0.0000026 0.0
0.0036964 0.0000122 0.0
0.0036070 0.0000233 0.0
0.0034911 0.0000359 0.0
0.0033456 0.0000499 0.0
0.0031676 0.0000655 0.0
0.0029539 0.0000827 0.0
0.0027011 0.0001016 0.0
0.0024060 0.0001222 0.0
0.0020650 0.0001448 0.0
0.0016746 0.0001693 0.0
0.0012311 0.0001957 0.0
0.0007308 0.0002243 0.0
0.0001702 0.0002549 0.0
-0.0004544 0.0002876 0.0
-0.0011462 0.0003222 0.0
-0.0019086 0.0003589 0.0
-0.0027444 0.0003974 0.0
-0.0036561 0.0004376 0.0
-0.0046460 0.0004793 0.0
-0.0057156 0.0005224 0.0
-0.0068660 0.0005665 0.0
-0.0080978 0.0006115 0.0
-0.0094107 0.0006568 0.0
-0.0108038 0.0007023 0.0
-0.0122755 0.0007475 0.0
-0.0138232 0.0007920 0.0
-0.0154435 0.0008353 0.0
-0.0171324 0.0008771 0.0
-0.0188847 0.0009168 0.0
-0.0206947 0.0009539 0.0
-0.0225556 0.0009880 0.0
-0.0244599 0.0010186 0.0
-0.0263995 0.0010453 0.0
-0.0283655 0.0010675 0.0
-0.0303482 0.0010849 0.0
-0.0323376 0.0010970 0.0
-0.0343230 0.0011035 0.0
-0.0362933 0.0011040 0.0
-0.0382371 0.0010981 0.0
-0.0401427 0.0010857 0.0
-0.0419980 0.0010663 0.0
-0.0437910 0.0010399 0.0
-0.0455094 0.0010062 0.0
-0.0471411 0.0009651 0.0
-0.0486740 0.0009165 0.0
-0.0500960 0.0008603 0.0
-0.0513954 0.0007966 0.0
-0.0525607 0.0007254 0.0
-0.0535808 0.0006468 0.0
-0.0544450 0.0005609 0.0
-0.0551431 0.0004679 0.0
-0.0556656 0.0003682 0.0
-0.0560035 0.0002620 0.0
-0.0561488 0.0001498 0.0
-0.0560942 0.0000321 0.0
-0.0558335 -0.0000906 0.0
-0.0553614 -0.0002176 0.0
-0.0546740 -0.0003480 0.0
-0.0537687 -0.0004812 0.0
-0.0526440 -0.0006160 0.0
-0.0513004 -0.0007515 0.0
-0.0497398 -0.0008865 0.0
-0.0479656 -0.0010197 0.0
-0.0459834 -0.0011499 0.0
-0.0438005 -0.0012758 0.0
-0.0414261 -0.0013957 0.0
-0.0388716 -0.0015084 0.0
-0.0361501 -0.0016124 0.0
-0.0332769 -0.0017062 0.0
-0.0302690 -0.0017884 0.0
-0.0271453 -0.0018577 0.0
-0.0239263 -0.0019131 0.0
-0.0206341 -0.0019533 0.0
-0.0172920 -0.0019777 0.0
-0.0139242 -0.0019856 0.0
-0.0105558 -0.0019765 0.0
-0.0072122 -0.0019504 0.0
-0.0039189 -0.0019075 0.0
-0.0007010 -0.0018481 0.0
0.0024169 -0.0017731 0.0
0.0054114 -0.0016834 0.0
0.0082606 -0.0015802 0.0
0.0109442 -0.0014652 0.0
0.0134441 -0.0013400 0.0
0.0157445 -0.0012065 0.0
0.0178321 -0.0010667 0.0
0.0196966 -0.0009225 0.0
0.0213305 -0.0007762 0.0
0.0227292 -0.0006296 0.0
0.0238912 -0.0004849 0.0
0.0248177 -0.0003438 0.0
0.0255130 -0.0002081 0.0
0.0259837 -0.0000792 0.0
0.0262391 0.0000414 0.0
0.0262906 0.0001528 0.0
0.0261515 0.0002540 0.0
0.0258367 0.0003444 0.0
0.0253622 0.0004236 0.0
0.0247453 0.0004915 0.0
0.0240036 0.0005481 0.0
0.0231551 0.0005936 0.0
0.0222176 0.0006284 0.0
0.0212090 0.0006532 0.0
0.0201460 0.0006685 0.0
0.0190449 0.0006752 0.0
0.0179207 0.0006741 0.0
0.0167873 0.0006661 0.0
0.0156573 0.0006521 0.0
0.0145417 0.0006331 0.0
0.0134501 0.0006100 0.0
0.0123907 0.0005836 0.0
0.0113701 0.0005548 0.0
0.0103936 0.0005243 0.0
0.0094651 0.0004927 0.0
0.0085875 0.0004607 0.0
0.0077622 0.0004287 0.0
0.0069901 0.0003972 0.0
0.0062709 0.0003666 0.0
0.0056038 0.0003372 0.0
0.0049872 0.0003091 0.0
0.0044194 0.0002825 0.0
0.0038979 0.0002577 0.0
0.0034201 0.0002346 0.0
0.0029833 0.0002132 0.0
0.0025845 0.0001936 0.0
0.0022210 0.0001758 0.0
0.0018898 0.0001596 0.0
0.0015884 0.0001448 0.0
0.0013143 0.0001312 0.0
0.0010659 0.0001186 0.0
0.0008416 0.0001066 0.0
0.0006407 0.0000946 0.0
0.0004635 0.0000823 0.0
0.0003107 0.0000690 0.0
0.0001839 0.0000544 0.0
0.0000852 0.0000382 0.0
0.0000166 0.0000206 0.0
-0.0000209 0.0000029 0.0
-0.0000292 -0.0000116 0.0
-0.0000161 -0.0000161 0.0
0.0000000 0.0000000 0.0
0.0000000 0.0000000 0.0
0.0000130 -0.0000141 0.0
0.0000863 -0.0000890 0.0
0.0002361 -0.0001841 0.0
0.0004659 -0.0002793 0.0
0.0007710 -0.0003648 0.0
0.0011415 -0.0004359 0.0
0.0015647 -0.0004903 0.0
0.0020264 -0.0005273 0.0
0.0025119 -0.0005471 0.0
0.0030072 -0.0005507 0.0
0.0034987 -0.0005396 0.0
0.0039745 -0.0005157 0.0
0.0044245 -0.0004813 0.0
0.0048405 -0.0004389 0.0
0.0052164 -0.0003912 0.0
0.0055484 -0.0003405 0.0
0.0058346 -0.0002894 0.0
0.0060753 -0.0002398 0.0
0.0062722 -0.0001936 0.0
0.0064286 -0.0001522 0.0
0.0065485 -0.0001166 0.0
0.0066371 -0.0000873 0.0
0.0066996 -0.0000645 0.0
0.0067413 -0.0000481 0.0
0.0067672 -0.0000375 0.0
0.0067818 -0.0000318 0.0
0.0067885 -0.0000301 0.0
0.0067901 -0.0000310 0.0
0.0067879 -0.0000332 0.0
0.0067822 -0.0000355 0.0
0.0067720 -0.0000364 0.0
0.0067554 -0.0000348 0.0
0.0067291 -0.0000297 0.0
0.0066892 -0.0000200 0.0
0.0066310 -0.0000053 0.0
0.0065493 0.0000150 0.0
0.0064385 0.0000411 0.0
0.0062928 0.0000732 0.0
0.0061063 0.0001113 0.0
0.0058731 0.0001553 0.0
0.0055870 0.0002053 0.0
0.0052421 0.0002613 0.0
0.0048323 0.0003234 0.0
0.0043514 0.0003918 0.0
0.0037931 0.0004665 0.0
0.0031510 0.0005479 0.0
0.0024186 0.0006361 0.0
0.0015893 0.0007314 0.0
0.0006565 0.0008339 0.0
-0.0003864 0.0009438 0.0
-0.0015459 0.0010609 0.0
-0.0028282 0.0011852 0.0
-0.0042389 0.0013164 0.0
-0.0057834 0.0014542 0.0
-0.0074664 0.0015981 0.0
-0.0092915 0.0017475 0.0
-0.0112619 0.0019016 0.0
-0.0133793 0.0020594 0.0
-0.0156445 0.0022200 0.0
-0.0180568 0.0023822 0.0
-0.0206145 0.0025447 0.0
-0.0233140 0.0027061 0.0
-0.0261505 0.0028648 0.0
-0.0291175 0.0030193 0.0
-0.0322070 0.0031680 0.0
-0.0354095 0.0033092 0.0
-0.0387137 0.0034412 0.0
-0.0421074 0.0035623 0.0
-0.0455764 0.0036708 0.0
-0.0491056 0.0037652 0.0
-0.0526788 0.0038440 0.0
-0.0562785 0.0039055 0.0
-0.0598866 0.0039487 0.0
-0.0634840 0.0039721 0.0
-0.0670513 0.0039748 0.0
-0.0705685 0.0039557 0.0
-0.0740155 0.0039142 0.0
-0.0773718 0.0038494 0.0
-0.0806173 0.0037609 0.0
-0.0837318 0.0036483 0.0
-0.0866954 0.0035114 0.0
-0.0894886 0.0033501 0.0
-0.0920926 0.0031645 0.0
-0.0944890 0.0029549 0.0
-0.0966602 0.0027214 0.0
-0.0985893 0.0024647 0.0
-0.1002604 0.0021854 0.0
-0.1016585 0.0018843 0.0
-0.1027697 0.0015623 0.0
-0.1035812 0.0012206 0.0
-0.1040815 0.0008604 0.0
-0.1042604 0.0004832 0.0
-0.1041089 0.0000907 0.0
-0.1036199 -0.0003153 0.0
-0.1027875 -0.0007328 0.0
-0.1016078 -0.0011594 0.0
-0.1000785 -0.0015927 0.0
-0.0981995 -0.0020300 0.0
-0.0959725 -0.0024682 0.0
-0.0934015 -0.0029043 0.0
-0.0904924 -0.0033349 0.0
-0.0872539 -0.0037564 0.0
-0.0836968 -0.0041651 0.0
-0.0798344 -0.0045573 0.0
-0.0756825 -0.0049289 0.0
-0.0712595 -0.0052760 0.0
-0.0665862 -0.0055947 0.0
-0.0616860 -0.0058811 0.0
-0.0565845 -0.0061316 0.0
-0.0513098 -0.0063427 0.0
-0.0458919 -0.0065112 0.0
-0.0403627 -0.0066343 0.0
-0.0347559 -0.0067099 0.0
-0.0291065 -0.0067362 0.0
-0.0234504 -0.0067120 0.0
-0.0178244 -0.0066369 0.0
-0.0122652 -0.0065112 0.0
-0.0068097 -0.0063358 0.0
-0.0014940 -0.0061125 0.0
0.0036469 -0.0058438 0.0
0.0085795 -0.0055328 0.0
0.0132724 -0.0051835 0.0
0.0176965 -0.0048002 0.0
0.0218256 -0.0043880 0.0
0.0256365 -0.0039522 0.0
0.0291099 -0.0034984 0.0
0.0322298 -0.0030326 0.0
0.0349846 -0.0025607 0.0
0.0373665 -0.0020885 0.0
0.0393718 -0.0016218 0.0
0.0410013 -0.0011660 0.0
0.0422595 -0.0007262 0.0
0.0431551 -0.0003069 0.0
0.0437002 0.0000876 0.0
0.0439107 0.0004540 0.0
0.0438053 0.0007893 0.0
0.0434056 0.0010914 0.0
0.0427356 0.0013586 0.0
0.0418209 0.0015902 0.0
0.0406889 0.0017859 0.0
0.0393674 0.0019461 0.0
0.0378850 0.0020717 0.0
0.0362700 0.0021641 0.0
0.0345504 0.0022253 0.0
0.0327529 0.0022575 0.0
0.0309031 0.0022634 0.0
0.0290248 0.0022456 0.0
0.0271397 0.0022072 0.0
0.0252676 0.0021510 0.0
0.0234256 0.0020800 0.0
0.0216287 0.0019971 0.0
0.0198893 0.0019050 0.0
0.0182176 0.0018061 0.0
0.0166213 0.0017029 0.0
0.0151063 0.0015974 0.0
0.0136763 0.0014913 0.0
0.0123333 0.0013863 0.0
0.0110779 0.0012836 0.0
0.0099093 0.0011844 0.0
0.0088256 0.0010894 0.0
0.0078240 0.0009993 0.0
0.0069009 0.0009146 0.0
0.0060523 0.0008356 0.0
0.0052739 0.0007623 0.0
0.0045609 0.0006947 0.0
0.0039089 0.0006326 0.0
0.0033135 0.0005755 0.0
0.0027709 0.0005225 0.0
0.0022779 0.0004728 0.0
0.0018319 0.0004251 0.0
0.0014318 0.0003781 0.0
0.0010772 0.0003301 0.0
0.0007693 0.0002796 0.0
0.0005099 0.0002255 0.0
0.0003017 0.0001673 0.0
0.0001470 0.0001061 0.0
0.0000466 0.0000458 0.0
-0.0000027 -0.0000048 0.0
-0.0000110 -0.0000292 0.0
0.0000000 0.0000000 0.0
0.0000000 0.0000000 0.0
0.0000403 -0.0000790 0.0
0.0001747 -0.0002373 0.0
0.0004112 -0.0004235 0.0
0.0007493 -0.0006082 0.0
0.0011819 -0.0007748 0.0
0.0016963 -0.0009140 0.0
0.0022767 -0.0010213 0.0
0.0029051 -0.0010944 0.0
0.0035629 -0.0011336 0.0
0.0042319 -0.0011405 0.0
0.0048949 -0.0011177 0.0
0.0055363 -0.0010692 0.0
0.0061427 -0.0009993 0.0
0.0067036 -0.0009130 0.0
0.0072106 -0.0008153 0.0
0.0076585 -0.0007113 0.0
0.0080446 -0.0006056 0.0
0.0083685 -0.0005024 0.0
0.0086323 -0.0004053 0.0
0.0088394 -0.0003172 0.0
0.0089951 -0.0002401 0.0
0.0091051 -0.0001751 0.0
0.0091760 -0.0001227 0.0
0.0092142 -0.0000826 0.0
0.0092257 -0.0000536 0.0
0.0092157 -0.0000341 0.0
0.0091884 -0.0000220 0.0
0.0091466 -0.0000148 0.0
0.0090916 -0.0000097 0.0
0.0090232 -0.0000040 0.0
0.0089394 0.0000050 0.0
0.0088369 0.0000198 0.0
0.0087108 0.0000426 0.0
0.0085552 0.0000753 0.0
0.0083630 0.0001192 0.0
0.0081266 0.0001754 0.0
0.0078376 0.0002444 0.0
0.0074875 0.0003267 0.0
0.0070673 0.0004224 0.0
0.0065683 0.0005316 0.0
0.0059812 0.0006543 0.0
0.0052971 0.0007906 0.0
0.0045068 0.0009406 0.0
0.0036011 0.0011047 0.0
0.0025708 0.0012830 0.0
0.0014065 0.0014760 0.0
0.0000990 0.0016839 0.0
-0.0013609 0.0019069 0.0
-0.0029822 0.0021450 0.0
-0.0047734 0.0023982 0.0
-0.0067425 0.0026660 0.0
-0.0088970 0.0029479 0.0
-0.0112432 0.0032428 0.0
-0.0137863 0.0035497 0.0
-0.0165304 0.0038670 0.0
-0.0194778 0.0041929 0.0
-0.0226292 0.0045254 0.0
-0.0259836 0.0048619 0.0
-0.0295379 0.0052000 0.0
-0.0332866 0.0055366 0.0
-0.0372225 0.0058686 0.0
-0.0413359 0.0061928 0.0
-0.0456149 0.0065058 0.0
-0.0500455 0.0068040 0.0
-0.0546116 0.0070839 0.0
-0.0592950 0.0073421 0.0
-0.0640758 0.0075750 0.0
-0.0689324 0.0077794 0.0
-0.0738420 0.0079522 0.0
-0.0787804 0.0080904 0.0
-0.0837225 0.0081915 0.0
-0.0886426 0.0082531 0.0
-0.0935145 0.0082730 0.0
-0.0983118 0.0082496 0.0
-0.1030082 0.0081816 0.0
-0.1075777 0.0080677 0.0
-0.1119947 0.0079073 0.0
-0.1162340 0.0077000 0.0
-0.1202716 0.0074456 0.0
-0.1240842 0.0071444 0.0
-0.1276494 0.0067967 0.0
-0.1309461 0.0064034 0.0
-0.1339544 0.0059654 0.0
-0.1366557 0.0054840 0.0
-0.1390325 0.0049606 0.0
-0.1410689 0.0043968 0.0
-0.1427503 0.0037946 0.0
-0.1440636 0.0031561 0.0
-0.1449970 0.0024836 0.0
-0.1455404 0.0017798 0.0
-0.1456850 0.0010473 0.0
-0.1454239 0.0002894 0.0
-0.1447514 -0.0004907 0.0
-0.1436639 -0.0012894 0.0
-0.1421592 -0.0021027 0.0
-0.1402369 -0.0029265 0.0
-0.1378986 -0.0037562 0.0
-0.1351478 -0.0045871 0.0
-0.1319898 -0.0054141 0.0
-0.1284321 -0.0062316 0.0
-0.1244843 -0.0070340 0.0
-0.1201582 -0.0078154 0.0
-0.1154679 -0.0085695 0.0
-0.1104298 -0.0092901 0.0
-0.1050627 -0.0099706 0.0
-0.0993875 -0.0106047 0.0
-0.0934278 -0.0111859 0.0
-0.0872094 -0.0117078 0.0
-0.0807605 -0.0121645 0.0
-0.0741114 -0.0125504 0.0
-0.0672944 -0.0128602 0.0
-0.0603440 -0.0130893 0.0
-0.0532961 -0.0132339 0.0
-0.0461883 -0.0132911 0.0
-0.0390594 -0.0132586 0.0
-0.0319490 -0.0131356 0.0
-0.0248972 -0.0129221 0.0
-0.0179443 -0.0126193 0.0
-0.0111303 -0.0122297 0.0
-0.0044947 -0.0117569 0.0
0.0019244 -0.0112058 0.0
0.0080902 -0.0105822 0.0
0.0139682 -0.0098932 0.0
0.0195261 -0.0091465 0.0
0.0247345 -0.0083510 0.0
0.0295671 -0.0075158 0.0
0.0340011 -0.0066509 0.0
0.0380178 -0.0057662 0.0
0.0416020 -0.0048721 0.0
0.0447433 -0.0039786 0.0
0.0474353 -0.0030958 0.0
0.0496760 -0.0022330 0.0
0.0514680 -0.0013993 0.0
0.0528182 -0.0006028 0.0
0.0537378 0.0001489 0.0
0.0542420 0.0008494 0.0
0.0543499 0.0014933 0.0
0.0540842 0.0020762 0.0
0.0534707 0.0025948 0.0
0.0525379 0.0030472 0.0
0.0513166 0.0034323 0.0
0.0498392 0.0037505 0.0
0.0481395 0.0040031 0.0
0.0462516 0.0041923 0.0
0.0442098 0.0043213 0.0
0.0420477 0.0043942 0.0
0.0397978 0.0044155 0.0
0.0374908 0.0043903 0.0
0.0351556 0.0043241 0.0
0.0328184 0.0042225 0.0
0.0305028 0.0040911 0.0
0.0282295 0.0039354 0.0
0.0260161 0.0037607 0.0
0.0238774 0.0035720 0.0
0.0218252 0.0033738 0.0
0.0198683 0.0031702 0.0
0.0180132 0.0029650 0.0
0.0162639 0.0027611 0.0
0.0146222 0.0025614 0.0
0.0130884 0.0023679 0.0
0.0116607 0.0021824 0.0
0.0103365 0.0020062 0.0
0.0091119 0.0018403 0.0
0.0079823 0.0016851 0.0
0.0069428 0.0015408 0.0
0.0059880 0.0014069 0.0
0.0051128 0.0012827 0.0
0.0043126 0.0011669 0.0
0.0035831 0.0010576 0.0
0.0029214 0.0009526 0.0
0.0023253 0.0008493 0.0
0.0017943 0.0007448 0.0
0.0013291 0.0006364 0.0
0.0009314 0.0005220 0.0
0.0006039 0.0004011 0.0
0.0003488 0.0002757 0.0
0.0001669 0.0001526 0.0
0.0000554 0.0000460 0.0
0.0000058 -0.0000188 0.0
0.0000000 0.0000000 0.0
0.0000000 0.0000000 0.0
0.0000663 -0.0001888 0.0
0.0002608 -0.0004599 0.0
0.0005807 -0.0007587 0.0
0.0010197 -0.0010500 0.0
0.0015667 -0.0013118 0.0
0.0022061 -0.0015306 0.0
0.0029190 -0.0016990 0.0
0.0036848 -0.0018135 0.0
0.0044818 -0.0018740 0.0
0.0052890 -0.0018827 0.0
0.0060863 -0.0018439 0.0
0.0068558 -0.0017635 0.0
0.0075818 -0.0016486 0.0
0.0082518 -0.0015068 0.0
0.0088561 -0.0013461 0.0
0.0093883 -0.0011745 0.0
0.0098450 -0.0009994 0.0
0.0102254 -0.0008275 0.0
0.0105312 -0.0006646 0.0
0.0107664 -0.0005151 0.0
0.0109362 -0.0003823 0.0
0.0110469 -0.0002683 0.0
0.0111054 -0.0001736 0.0
0.0111186 -0.0000977 0.0
0.0110927 -0.0000389 0.0
0.0110332 0.0000055 0.0
0.0109441 0.0000390 0.0
0.0108277 0.0000658 0.0
0.0106847 0.0000901 0.0
0.0105139 0.0001167 0.0
0.0103118 0.0001498 0.0
0.0100735 0.0001938 0.0
0.0097921 0.0002521 0.0
0.0094594 0.0003278 0.0
0.0090661 0.0004233 0.0
0.0086018 0.0005404 0.0
0.0080554 0.0006802 0.0
0.0074156 0.0008435 0.0
0.0066706 0.0010305 0.0
0.0058084 0.0012415 0.0
0.0048172 0.0014765 0.0
0.0036849 0.0017358 0.0
0.0023995 0.0020194 0.0
0.0009490 0.0023278 0.0
-0.0006784 0.0026611 0.0
-0.0024944 0.0030196 0.0
-0.0045103 0.0034035 0.0
-0.0067370 0.0038126 0.0
-0.0091847 0.0042464 0.0
-0.0118625 0.0047041 0.0
-0.0147786 0.0051845 0.0
-0.0179393 0.0056858 0.0
-0.0213497 0.0062057 0.0
-0.0250126 0.0067414 0.0
-0.0289285 0.0072896 0.0
-0.0330957 0.0078464 0.0
-0.0375098 0.0084074 0.0
-0.0421635 0.0089680 0.0
-0.0470469 0.0095230 0.0
-0.0521469 0.0100669 0.0
-0.0574477 0.0105940 0.0
-0.0629310 0.0110985 0.0
-0.0685755 0.0115744 0.0
-0.0743578 0.0120160 0.0
-0.0802521 0.0124174 0.0
-0.0862309 0.0127734 0.0
-0.0922654 0.0130786 0.0
-0.0983253 0.0133285 0.0
-0.1043797 0.0135188 0.0
-0.1103974 0.0136457 0.0
-0.1163467 0.0137061 0.0
-0.1221967 0.0136975 0.0
-0.1279167 0.0136179 0.0
-0.1334768 0.0134659 0.0
-0.1388485 0.0132408 0.0
-0.1440041 0.0129422 0.0
-0.1489177 0.0125705 0.0
-0.1535646 0.0121263 0.0
-0.1579219 0.0116110 0.0
-0.1619683 0.0110260 0.0
-0.1656841 0.0103733 0.0
-0.1690515 0.0096552 0.0
-0.1720540 0.0088741 0.0
-0.1746770 0.0080329 0.0
-0.1769076 0.0071347 0.0