# vtk DataFile Version 2.0
Lid Driven Cavity Flow
ASCII
DATASET STRUCTURED_GRID
DIMENSIONS 181 181 1
POINTS 32761 float
0.0000000 0.0000000 0.0
0.0055556 0.0000000 0.0
0.0111111 0.0000000 0.0
0.0166667 0.0000000 0.0
0.0222222 0.0000000 0.0
0.0277778 0.0000000 0.0
0.0333333 0.0000000 0.0
0.0388889 0.0000000 0.0
0.0444444 0.0000000 0.0
0.0500000 0.0000000 0.0
0.0555556 0.0000000 0.0
0.0611111 0.0000000 0.0
0.0666667 0.0000000 0.0
0.0722222 0.0000000 0.0
0.0777778 0.0000000 0.0
0.0833333 0.0000000 0.0
0.0888889 0.0000000 0.0
0.0944444 0.0000000 0.0
0.1000000 0.0000000 0.0
0.1055556 0.0000000 0.0
0.1111111 0.0000000 0.0
0.1166667 0.0000000 0.0
0.1222222 0.0000000 0.0
0.1277778 0.0000000 0.0
0.1333333 0.0000000 0.0
0.1388889 0.0000000 0.0
0.1444444 0.0000000 0.0
0.1500000 0.0000000 0.0
0.1555556 0.0000000 0.0
0.1611111 0.0000000 0.0
0.1666667 0.0000000 0.0
0.1722222 0.0000000 0.0
0.1777778 0.0000000 0.0
0.1833333 0.0000000 0.0
0.1888889 0.0000000 0.0
0.1944444 0.0000000 0.0
0.2000000 0.0000000 0.0
0.2055556 0.0000000 0.0
0.2111111 0.0000000 0.0
0.2166667 0.0000000 0.0
0.2222222 0.0000000 0.0
0.2277778 0.0000000 0.0
0.2333333 0.0000000 0.0
0.2388889 0.0000000 0.0
0.2444444 0.0000000 0.0
0.2500000 0.0000000 0.0
0.2555556 0.0000000 0.0
0.2611111 0.0000000 0.0
0.2666667 0.0000000 0.0
0.2722222 0.0000000 0.0
0.2777778 0.0000000 0.0
0.2833333 0.0000000 0.0
0.2888889 0.0000000 0.0
0.2944444 0.0000000 0.0
0.3000000 0.0000000 0.0
0.3055556 0.0000000 0.0
0.3111111 0.0000000 0.0
0.3166667 0.0000000 0.0
0.3222222 0.0000000 0.0
0.3277778 0.0000000 0.0
0.3333333 0.0000000 0.0
0.3388889 0.0000000 0.0
0.3444444 0.0000000 0.0
0.3500000 0.0000000 0.0
0.3555556 0.0000000 0.0
0.3611111 0.0000000 0.0
0.3666667 0.0000000 0.0
0.3722222 0.0000000 0.0
0.3777778 0.0000000 0.0
0.3833333 0.0000000 0.0
0.3888889 0.0000000 0.0
0.3944444 0.0000000 0.0
0.4000000 0.0000000 0.0
0.4055556 0.0000000 0.0
0.4111111 0.0000000 0.0
0.4166667 0.0000000 0.0
0.4222222 0.0000000 0.0
0.4277778 0.0000000 0.0
0.4333333 0.0000000 0.0
0.4388889 0.0000000 0.0
0.4444444 0.0000000 0.0
0.4500000 0.0000000 0.0
0.4555556 0.0000000 0.0
0.4611111 0.0000000 0.0
0.4666667 0.0000000 0.0
0.4722222 0.0000000 0.0
0.4777778 0.0000000 0.0
0.4833333 0.0000000 0.0
0.4888889 0.0000000 0.0
0.4944444 0.0000000 0.0
0.5000000 0.0000000 0.0
0.5055556 0.0000000 0.0
0.5111111 0.0000000 0.0
0.5166667 0.0000000 0.0
0.5222222 0.0000000 0.0
0.5277778 0.0000000 0.0
0.5333333 0.0000000 0.0
0.5388889 0.0000000 0.0
0.5444444 0.0000000 0.0
0.5500000 0.0000000 0.0
0.5555556 0.0000000 0.0
0.5611111 0.0000000 0.0
0.5666667 0.0000000 0.0
0.5722222 0.0000000 0.0
0.5777778 0.0000000 0.0
0.5833333 0.0000000 0.0
0.5888889 0.0000000 0.0
0.5944444 0.0000000 0.0
0.6000000 0.0000000 0.0
0.6055556 0.0000000 0.0
0.6111111 0.0000000 0.0
0.6166667 0.0000000 0.0
0.6222222 0.0000000 0.0
0.6277778 0.0000000 0.0
0.6333333 0.0000000 0.0
0.6388889 0.0000000 0.0
0.6444444 0.0000000 0.0
0.6500000 0.0000000 0.0
0.6555556 0.0000000 0.0
0.6611111 0.0000000 0.0
0.6666667 0.0000000 0.0
0.6722222 0.0000000 0.0
0.6777778 0.0000000 0.0
0.6833333 0.0000000 0.0
0.6888889 0.0000000 0.0
0.6944444 0.0000000 0.0
0.7000000 0.0000000 0.0
0.7055556 0.0000000 0.0
0.7111111 0.0000000 0.0
0.7166667 0.0000000 0.0
0.7222222 0.0000000 0.0
0.7277778 0.0000000 0.0
0.7333333 0.0000000 0.0
0.7388889 0.0000000 0.0
0.7444444 0.0000000 0.0
0.7500000 0.0000000 0.0
0.7555556 0.0000000 0.0
0.7611111 0.0000000 0.0
0.7666667 0.0000000 0.0
0.7722222 0.0000000 0.0
0.7777778 0.0000000 0.0
0.7833333 0.0000000 0.0
0.7888889 0.0000000 0.0
0.7944444 0.0000000 0.0
0.8000000 0.0000000 0.0
0.8055556 0.0000000 0.0
0.8111111 0.0000000 0.0
0.8166667 0.0000000 0.0
0.8222222 0.0000000 0.0
0.8277778 0.0000000 0.0
0.8333333 0.0000000 0.0
0.8388889 0.0000000 0.0
0.8444444 0.0000000 0.0
0.8500000 0.0000000 0.0
0.8555556 0.0000000 0.0
0.8611111 0.0000000 0.0
0.8666667 0.0000000 0.0
0.8722222 0.0000000 0.0
0.8777778 0.0000000 0.0
0.8833333 0.0000000 0.0
0.8888889 0.0000000 0.0
0.8944444 0.0000000 0.0
0.9000000 0.0000000 0.0
0.9055556 0.0000000 0.0
0.9111111 0.0000000 0.0
0.9166667 0.0000000 0.0
0.9222222 0.0000000 0.0
0.9277778 0.0000000 0.0
0.9333333 0.0000000 0.0
0.9388889 0.0000000 0.0
0.9444444 0.0000000 0.0
0.9500000 0.0000000 0.0
0.9555556 0.0000000 0.0
0.9611111 0.0000000 0.0
0.9666667 0.0000000 0.0
0.9722222 0.0000000 0.0
0.9777778 0.0000000 0.0
0.9833333 0.0000000 0.0
0.9888889 0.0000000 0.0
0.9944444 0.0000000 0.0
1.0000000 0.0000000 0.0
0.0000000 0.0055556 0.0
0.0055556 0.0055556 0.0
0.0111111 0.0055556 0.0
0.0166667 0.0055556 0.0
0.0222222 0.0055556 0.0
0.0277778 0.0055556 0.0
0.0333333 0.0055556 0.0
0.0388889 0.0055556 0.0
0.0444444 0.0055556 0.0
0.0500000 0.0055556 0.0
0.0555556 0.0055556 0.0
0.0611111 0.0055556 0.0
0.0666667 0.0055556 0.0
0.0722222 0.0055556 0.0
0.0777778 0.0055556 0.0
0.0833333 0.0055556 0.0
0.0888889 0.0055556 0.0
0.0944444 0.0055556 0.0
0.1000000 0.0055556 0.0
0.1055556 0.0055556 0.0
0.1111111 0.0055556 0.0
0.1166667 0.0055556 0.0
0.1222222 0.0055556 0.0
0.1277778 0.0055556 0.0
0.1333333 0.0055556 0.0
0.1388889 0.0055556 0.0
0.1444444 0.0055556 0.0
0.1500000 0.0055556 0.0
0.1555556 0.0055556 0.0
0.1611111 0.0055556 0.0
0.1666667 0.0055556 0.0
0.1722222 0.0055556 0.0
0.1777778 0.0055556 0.0
0.1833333 0.0055556 0.0
0.1888889 0.0055556 0.0
0.1944444 0.0055556 0.0
0.2000000 0.0055556 0.0
0.2055556 0.0055556 0.0
0.2111111 0.0055556 0.0
0.2166667 0.0055556 0.0
0.2222222 0.0055556 0.0
0.2277778 0.0055556 0.0
0.2333333 0.0055556 0.0
0.2388889 0.0055556 0.0
0.2444444 0.0055556 0.0
0.2500000 0.0055556 0.0
0.2555556 0.0055556 0.0
0.2611111 0.0055556 0.0
0.2666667 0.0055556 0.0
0.2722222 0.0055556 0.0
0.2777778 0.0055556 0.0
0.2833333 0.0055556 0.0
0.2888889 0.0055556 0.0
0.2944444 0.0055556 0.0
0.3000000 0.0055556 0.0
0.3055556 0.0055556 0.0
0.3111111 0.0055556 0.0
0.3166667 0.0055556 0.0
0.3222222 0.0055556 0.0
0.3277778 0.0055556 0.0
0.3333333 0.0055556 0.0
0.3388889 0.0055556 0.0
0.3444444 0.0055556 0.0
0.3500000 0.0055556 0.0
0.3555556 0.0055556 0.0
0.3611111 0.0055556 0.0
0.3666667 0.0055556 0.0
0.3722222 0.0055556 0.0
0.3777778 0.0055556 0.0
0.3833333 0.0055556 0.0
0.3888889 0.0055556 0.0
0.3944444 0.0055556 0.0
0.4000000 0.0055556 0.0
0.4055556 0.0055556 0.0
0.4111111 0.0055556 0.0
0.4166667 0.0055556 0.0
0.4222222 0.0055556 0.0
0.4277778 0.0055556 0.0
0.4333333 0.0055556 0.0
0.4388889 0.0055556 0.0
0.4444444 0.0055556 0.0
0.4500000 0.0055556 0.0
0.4555556 0.0055556 0.0
0.4611111 0.0055556 0.0
0.4666667 0.0055556 0.0
0.4722222 0.0055556 0.0
0.4777778 0.0055556 0.0
0.4833333 0.0055556 0.0
0.4888889 0.0055556 0.0
0.4944444 0.0055556 0.0
0.5000000 0.0055556 0.0
0.5055556 0.0055556 0.0
0.5111111 0.0055556 0.0
0.5166667 0.0055556 0.0
0.5222222 0.0055556 0.0
0.5277778 0.0055556 0.0
0.5333333 0.0055556 0.0
0.5388889 0.0055556 0.0
0.5444444 0.0055556 0.0
0.5500000 0.0055556 0.0
0.5555556 0.0055556 0.0
0.5611111 0.0055556 0.0
0.5666667 0.0055556 0.0
0.5722222 0.0055556 0.0
0.5777778 0.0055556 0.0
0.5833333 0.0055556 0.0
0.5888889 0.0055556 0.0
0.5944444 0.0055556 0.0
0.6000000 0.0055556 0.0
0.6055556 0.0055556 0.0
0.6111111 0.0055556 0.0
0.6166667 0.0055556 0.0
0.6222222 0.0055556 0.0
0.6277778 0.0055556 0.0
0.6333333 0.0055556 0.0
0.6388889 0.0055556 0.0
0.6444444 0.0055556 0.0
0.6500000 0.0055556 0.0
0.6555556 0.0055556 0.0
0.6611111 0.0055556 0.0
0.6666667 0.0055556 0.0
0.6722222 0.0055556 0.0
0.6777778 0.0055556 0.0
0.6833333 0.0055556 0.0
0.6888889 0.0055556 0.0
0.6944444 0.0055556 0.0
0.7000000 0.0055556 0.0
0.7055556 0.0055556 0.0
0.7111111 0.0055556 0.0
0.7166667 0.0055556 0.0
0.7222222 0.0055556 0.0
0.7277778 0.0055556 0.0
0.7333333 0.0055556 0.0
0.7388889 0.0055556 0.0
0.7444444 0.0055556 0.0
0.7500000 0.0055556 0.0
0.7555556 0.0055556 0.0
0.7611111 0.0055556 0.0
0.7666667 0.0055556 0.0
0.7722222 0.0055556 0.0
0.7777778 0.0055556 0.0
0.7833333 0.0055556 0.0
0.7888889 0.0055556 0.0
0.7944444 0.0055556 0.0
0.8000000 0.0055556 0.0
0.8055556 0.0055556 0.0
0.8111111 0.0055556 0.0
0.8166667 0.0055556 0.0
0.8222222 0.0055556 0.0
0.8277778 0.0055556 0.0
0.8333333 0.0055556 0.0
0.8388889 0.0055556 0.0
0.8444444 0.0055556 0.0
0.8500000 0.0055556 0.0
0.8555556 0.0055556 0.0
0.8611111 0.0055556 0.0
0.8666667 0.0055556 0.0
0.8722222 0.0055556 0.0
0.8777778 0.0055556 0.0
0.8833333 0.0055556 0.0
0.8888889 0.0055556 0.0
0.8944444 0.0055556 0.0
0.9000000 0.0055556 0.0
0.9055556 0.0055556 0.0
0.9111111 0.0055556 0.0
0.9166667 0.0055556 0.0
0.9222222 0.0055556 0.0
0.9277778 0.0055556 0.0
0.9333333 0.0055556 0.0
0.9388889 0.0055556 0.0
0.9444444 0.0055556 0.0
0.9500000 0.0055556 0.0
0.9555556 0.0055556 0.0
0.9611111 0.0055556 0.0
0.9666667 0.0055556 0.0
0.9722222 0.0055556 0.0
0.9777778 0.0055556 0.0
0.9833333 0.0055556 0.0
0.9888889 0.0055556 0.0
0.9944444 0.0055556 0.0
1.0000000 0.0055556 0.0
0.0000000 0.0111111 0.0
0.0055556 0.0111111 0.0
0.0111111 0.0111111 0.0
0.0166667 0.0111111 0.0
0.0222222 0.0111111 0.0
0.0277778 0.0111111 0.0
0.0333333 0.0111111 0.0
0.0388889 0.0111111 0.0
0.0444444 0.0111111 0.0
0.0500000 0.0111111 0.0
0.0555556 0.0111111 0.0
0.0611111 0.0111111 0.0
0.0666667 0.0111111 0.0
0.0722222 0.0111111 0.0
0.0777778 0.0111111 0.0
0.0833333 0.0111111 0.0
0.0888889 0.0111111 0.0
0.0944444 0.0111111 0.0
0.1000000 0.0111111 0.0
0.1055556 0.0111111 0.0
0.1111111 0.0111111 0.0
0.1166667 0.0111111 0.0
0.1222222 0.0111111 0.0
0.1277778 0.0111111 0.0
0.1333333 0.0111111 0.0
0.1388889 0.0111111 0.0
0.1444444 0.0111111 0.0
0.1500000 0.0111111 0.0
0.1555556 0.0111111 0.0
0.1611111 0.0111111 0.0
0.1666667 0.0111111 0.0
0.1722222 0.0111111 0.0
0.1777778 0.0111111 0.0
0.1833333 0.0111111 0.0
0.1888889 0.0111111 0.0
0.1944444 0.0111111 0.0
0.2000000 0.0111111 0.0
0.2055556 0.0111111 0.0
0.2111111 0.0111111 0.0
0.2166667 0.0111111 0.0
0.2222222 0.0111111 0.0
0.2277778 0.0111111 0.0
0.2333333 0.0111111 0.0
0.2388889 0.0111111 0.0
0.2444444 0.0111111 0.0
0.2500000 0.0111111 0.0
0.2555556 0.0111111 0.0
0.2611111 0.0111111 0.0
0.2666667 0.0111111 0.0
[...]
POINT_DATA 32761
VECTORS velocity float
0.0000000 0.0000000 0.0
0.0000000 0.0000000 0.0
0.0000000 0.0000000 0.0
0.0000000 0.0000000 0.0
0.0000000 0.0000000 0.0
0.0000000 0.0000000 0.0
0.0000000 0.0000000 0.0
0.0000000 0.0000000 0.0
0.0000000 0.0000000 0.0
0.0000000 0.0000000 0.0
0.0000000 0.0000000 0.0
0.0000000 0.0000000 0.0
0.0000000 0.0000000 0.0
0.0000000 0.0000000 0.0
0.0000000 0.0000000 0.0
0.0000000 0.0000000 0.0
0.0000000 0.0000000 0.0
0.0000000 0.0000000 0.0
0.0000000 0.0000000 0.0
0.0000000 0.0000000 0.0
0.0000000 0.0000000 0.0
0.0000000 0.0000000 0.0
0.0000000 0.0000000 0.0
0.0000000 0.0000000 0.0
0.0000000 0.0000000 0.0
0.0000000 0.0000000 0.0
0.0000000 0.0000000 0.0
0.0000000 0.0000000 0.0
0.0000000 0.0000000 0.0
0.0000000 0.0000000 0.0
0.0000000 0.0000000 0.0
0.0000000 0.0000000 0.0
0.0000000 0.0000000 0.0
0.0000000 0.0000000 0.0
0.0000000 0.0000000 0.0
0.0000000 0.0000000 0.0
0.0000000 0.0000000 0.0
0.0000000 0.0000000 0.0
0.0000000 0.0000000 0.0
0.0000000 0.0000000 0.0
0.0000000 0.0000000 0.0
0.0000000 0.0000000 0.0
0.0000000 0.0000000 0.0
0.0000000 0.0000000 0.0
0.0000000 0.0000000 0.0
0.0000000 0.0000000 0.0
0.0000000 0.0000000 0.0
0.0000000 0.0000000 0.0
0.0000000 0.0000000 0.0
0.0000000 0.0000000 0.0
0.0000000 0.0000000 0.0
0.0000000 0.0000000 0.0
0.0000000 0.0000000 0.0
0.0000000 0.0000000 0.0
0.0000000 0.0000000 0.0
0.0000000 0.0000000 0.0
0.0000000 0.0000000 0.0
0.0000000 0.0000000 0.0
0.0000000 0.0000000 0.0
0.0000000 0.0000000 0.0
0.0000000 0.0000000 0.0
0.0000000 0.0000000 0.0
0.0000000 0.0000000 0.0
0.0000000 0.0000000 0.0
0.0000000 0.0000000 0.0
0.0000000 0.0000000 0.0
0.0000000 0.0000000 0.0
0.0000000 0.0000000 0.0
0.0000000 0.0000000 0.0
0.0000000 0.0000000 0.0
0.0000000 0.0000000 0.0
0.0000000 0.0000000 0.0
0.0000000 0.0000000 0.0
0.0000000 0.0000000 0.0
0.0000000 0.0000000 0.0
0.0000000 0.0000000 0.0
0.0000000 0.0000000 0.0
0.0000000 0.0000000 0.0
0.0000000 0.0000000 0.0
0.0000000 0.0000000 0.0
0.0000000 0.0000000 0.0
0.0000000 0.0000000 0.0
0.0000000 0.0000000 0.0
0.0000000 0.0000000 0.0
0.0000000 0.0000000 0.0
0.0000000 0.0000000 0.0
0.0000000 0.0000000 0.0
0.0000000 0.0000000 0.0
0.0000000 0.0000000 0.0
0.0000000 0.0000000 0.0
0.0000000 0.0000000 0.0
0.0000000 0.0000000 0.0
0.0000000 0.0000000 0.0
0.0000000 0.0000000 0.0
0.0000000 0.0000000 0.0
0.0000000 0.0000000 0.0
0.0000000 0.0000000 0.0
0.0000000 0.0000000 0.0
0.0000000 0.0000000 0.0
0.0000000 0.0000000 0.0
0.0000000 0.0000000 0.0
0.0000000 0.0000000 0.0
0.0000000 0.0000000 0.0
0.0000000 0.0000000 0.0
0.0000000 0.0000000 0.0
0.0000000 0.0000000 0.0
0.0000000 0.0000000 0.0
0.0000000 0.0000000 0.0
0.0000000 0.0000000 0.0
0.0000000 0.0000000 0.0
0.0000000 0.0000000 0.0
0.0000000 0.0000000 0.0
0.0000000 0.0000000 0.0
0.0000000 0.0000000 0.0
0.0000000 0.0000000 0.0
0.0000000 0.0000000 0.0
0.0000000 0.0000000 0.0
0.0000000 0.0000000 0.0
0.0000000 0.0000000 0.0
0.0000000 0.0000000 0.0
0.0000000 0.0000000 0.0
0.0000000 0.0000000 0.0
0.0000000 0.0000000 0.0
0.0000000 0.0000000 0.0
0.0000000 0.0000000 0.0
0.0000000 0.0000000 0.0
0.0000000 0.0000000 0.0
0.0000000 0.0000000 0.0
0.0000000 0.0000000 0.0
0.0000000 0.0000000 0.0
0.0000000 0.0000000 0.0
0.0000000 0.0000000 0.0
0.0000000 0.0000000 0.0
0.0000000 0.0000000 0.0
0.0000000 0.0000000 0.0
0.0000000 0.0000000 0.0
0.0000000 0.0000000 0.0
0.0000000 0.0000000 0.0
0.0000000 0.0000000 0.0
0.0000000 0.0000000 0.0
0.0000000 0.0000000 0.0
0.0000000 0.0000000 0.0
0.0000000 0.0000000 0.0
0.0000000 0.0000000 0.0
0.0000000 0.0000000 0.0
0.0000000 0.0000000 0.0
0.0000000 0.0000000 0.0
0.0000000 0.0000000 0.0
0.0000000 0.0000000 0.0
0.0000000 0.0000000 0.0
0.0000000 0.0000000 0.0
0.0000000 0.0000000 0.0
0.0000000 0.0000000 0.0
0.0000000 0.0000000 0.0
0.0000000 0.0000000 0.0
0.0000000 0.0000000 0.0
0.0000000 0.0000000 0.0
0.0000000 0.0000000 0.0
0.0000000 0.0000000 0.0
0.0000000 0.0000000 0.0
0.0000000 0.0000000 0.0
0.0000000 0.0000000 0.0
0.0000000 0.0000000 0.0
0.0000000 0.0000000 0.0
0.0000000 0.0000000 0.0
0.0000000 0.0000000 0.0
0.0000000 0.0000000 0.0
0.0000000 0.0000000 0.0
0.0000000 0.0000000 0.0
0.0000000 0.0000000 0.0
0.0000000 0.0000000 0.0
0.0000000 0.0000000 0.0
0.0000000 0.0000000 0.0
0.0000000 0.0000000 0.0
0.0000000 0.0000000 0.0
0.0000000 0.0000000 0.0
0.0000000 0.0000000 0.0
0.0000000 0.0000000 0.0
0.0000000 0.0000000 0.0
0.0000000 0.0000000 0.0
0.0000037 0.0000000 0.0
0.0000000 0.0000000 0.0
-0.0000178 -0.0000030 0.0
0.0000099 -0.0000172 0.0
0.0000788 -0.0000452 0.0
0.0001964 -0.0000739 0.0
0.0003596 -0.0000995 0.0
0.0005621 -0.0001206 0.0
0.0007960 -0.0001365 0.0
0.0010528 -0.0001472 0.0
0.0013237 -0.0001529 0.0
0.0016002 -0.0001538 0.0
0.0018746 -0.0001504 0.0
0.0021400 -0.0001434 0.0
0.0023905 -0.0001333 0.0
0.0026214 -0.0001211 0.0
0.0028294 -0.0001074 0.0
0.0030126 -0.0000930 0.0
0.0031700 -0.0000786 0.0
0.0033019 -0.0000648 0.0
0.0034097 -0.0000521 0.0
0.0034955 -0.0000409 0.0
0.0035619 -0.0000315 0.0
0.0036120 -0.0000240 0.0
0.0036491 -0.0000185 0.0
0.0036764 -0.0000149 0.0
0.0036971 -0.0000131 0.0
0.0037138 -0.0000128 0.0
0.0037289 -0.0000137 0.0
0.0037439 -0.0000154 0.0
0.0037598 -0.0000176 0.0
0.0037771 -0.0000199 0.0
0.0037953 -0.0000219 0.0
0.0038135 -0.0000232 0.0
0.0038301 -0.0000236 0.0
0.0038431 -0.0000228 0.0
0.0038501 -0.0000207 0.0
0.0038484 -0.0000171 0.0
0.0038351 -0.0000120 0.0
0.0038072 -0.0000055 0.0
0.0037619 0.0000026 0.0
0.0036959 0.0000122 0.0
0.0036065 0.0000233 0.0
0.0034905 0.0000359 0.0
0.0033450 0.0000499 0.0
0.0031669 0.0000655 0.0
0.0029530 0.0000827 0.0
0.0027001 0.0001016 0.0
0.0024049 0.0001223 0.0
0.0020637 0.0001448 0.0
0.0016731 0.0001693 0.0
0.0012293 0.0001958 0.0
0.0007288 0.0002244 0.0
0.0001679 0.0002550 0.0
-0.0004570 0.0002877 0.0
-0.0011493 0.0003224 0.0
-0.0019121 0.0003591 0.0
-0.0027483 0.0003976 0.0
-0.0036606 0.0004378 0.0
-0.0046510 0.0004796 0.0
-0.0057212 0.0005227 0.0
-0.0068723 0.0005669 0.0
-0.0081049 0.0006118 0.0
-0.0094187 0.0006572 0.0
-0.0108127 0.0007027 0.0
-0.0122854 0.0007480 0.0
-0.0138342 0.0007925 0.0
-0.0154557 0.0008359 0.0
-0.0171459 0.0008777 0.0
-0.0188997 0.0009175 0.0
-0.0207112 0.0009547 0.0
-0.0225738 0.0009889 0.0
-0.0244800 0.0010196 0.0
-0.0264217 0.0010463 0.0
-0.0283899 0.0010687 0.0
-0.0303750 0.0010862 0.0
-0.0323670 0.0010984 0.0
-0.0343553 0.0011050 0.0
-0.0363288 0.0011057 0.0
-0.0382759 0.0011000 0.0
-0.0401851 0.0010876 0.0
-0.0420444 0.0010685 0.0
-0.0438415 0.0010422 0.0
-0.0455645 0.0010087 0.0
-0.0472010 0.0009678 0.0
-0.0487390 0.0009194 0.0
-0.0501665 0.0008635 0.0
-0.0514717 0.0008000 0.0
-0.0526432 0.0007290 0.0
-0.0536697 0.0006506 0.0
-0.0545407 0.0005650 0.0
-0.0552459 0.0004722 0.0
-0.0557757 0.0003727 0.0
-0.0561212 0.0002667 0.0
-0.0562743 0.0001547 0.0
-0.0562278 0.0000371 0.0
-0.0559752 -0.0000854 0.0
-0.0555113 -0.0002123 0.0
-0.0548322 -0.0003427 0.0
-0.0539351 -0.0004758 0.0
-0.0528187 -0.0006107 0.0
-0.0514831 -0.0007463 0.0
-0.0499302 -0.0008814 0.0
-0.0481634 -0.0010149 0.0
-0.0461883 -0.0011454 0.0
-0.0440119 -0.0012715 0.0
-0.0416436 -0.0013919 0.0
-0.0390944 -0.0015050 0.0
-0.0363775 -0.0016095 0.0
-0.0335080 -0.0017038 0.0
-0.0305030 -0.0017866 0.0
-0.0273812 -0.0018567 0.0
-0.0241632 -0.0019127 0.0
-0.0208709 -0.0019537 0.0
-0.0175275 -0.0019788 0.0
-0.0141574 -0.0019874 0.0
-0.0107856 -0.0019791 0.0
-0.0074374 -0.0019538 0.0
-0.0041386 -0.0019115 0.0
-0.0009141 -0.0018528 0.0
0.0022114 -0.0017784 0.0
0.0052144 -0.0016892 0.0
0.0080728 -0.0015866 0.0
0.0107664 -0.0014720 0.0
0.0132768 -0.0013471 0.0
0.0155882 -0.0012138 0.0
0.0176872 -0.0010740 0.0
0.0195633 -0.0009299 0.0
0.0212089 -0.0007835 0.0
0.0226194 -0.0006369 0.0
0.0237929 -0.0004920 0.0
0.0247308 -0.0003506 0.0
0.0254370 -0.0002146 0.0
0.0259183 -0.0000854 0.0
0.0261838 0.0000357 0.0
0.0262448 0.0001475 0.0
0.0261146 0.0002491 0.0
0.0258079 0.0003400 0.0
0.0253410 0.0004197 0.0
0.0247308 0.0004881 0.0
0.0239952 0.0005451 0.0
0.0231520 0.0005911 0.0
0.0222193 0.0006263 0.0
0.0212145 0.0006515 0.0
0.0201549 0.0006671 0.0
0.0190565 0.0006741 0.0
0.0179345 0.0006733 0.0
0.0168028 0.0006656 0.0
0.0156740 0.0006519 0.0
0.0145591 0.0006331 0.0
0.0134680 0.0006101 0.0
0.0124087 0.0005839 0.0
0.0113879 0.0005552 0.0
0.0104110 0.0005247 0.0
0.0094820 0.0004932 0.0
0.0086036 0.0004612 0.0
0.0077776 0.0004293 0.0
0.0070046 0.0003978 0.0
0.0062845 0.0003672 0.0
0.0056164 0.0003377 0.0
0.0049989 0.0003097 0.0
0.0044301 0.0002831 0.0
0.0039077 0.0002582 0.0
0.0034290 0.0002351 0.0
0.0029914 0.0002137 0.0
0.0025918 0.0001941 0.0
0.0022275 0.0001762 0.0
0.0018956 0.0001599 0.0
0.0015935 0.0001451 0.0
0.0013188 0.0001316 0.0
0.0010697 0.0001189 0.0
0.0008448 0.0001069 0.0
0.0006435 0.0000949 0.0
0.0004657 0.0000826 0.0
0.0003124 0.0000693 0.0
0.0001852 0.0000547 0.0
0.0000861 0.0000384 0.0
0.0000171 0.0000208 0.0
-0.0000206 0.0000030 0.0
-0.0000291 -0.0000115 0.0
-0.0000161 -0.0000161 0.0
0.0000000 0.0000000 0.0
0.0000000 0.0000000 0.0
0.0000099 -0.0000182 0.0
0.0000827 -0.0000925 0.0
0.0002330 -0.0001864 0.0
0.0004635 -0.0002807 0.0
0.0007691 -0.0003657 0.0
0.0011401 -0.0004365 0.0
0.0015637 -0.0004907 0.0
0.0020257 -0.0005276 0.0
0.0025115 -0.0005474 0.0
0.0030069 -0.0005510 0.0
0.0034986 -0.0005398 0.0
0.0039746 -0.0005158 0.0
0.0044247 -0.0004814 0.0
0.0048407 -0.0004390 0.0
0.0052167 -0.0003912 0.0
0.0055487 -0.0003405 0.0
0.0058349 -0.0002893 0.0
0.0060756 -0.0002398 0.0
0.0062724 -0.0001936 0.0
0.0064287 -0.0001522 0.0
0.0065486 -0.0001165 0.0
0.0066371 -0.0000872 0.0
0.0066995 -0.0000644 0.0
0.0067411 -0.0000480 0.0
0.0067669 -0.0000374 0.0
0.0067814 -0.0000317 0.0
0.0067881 -0.0000300 0.0
0.0067896 -0.0000309 0.0
0.0067873 -0.0000332 0.0
0.0067816 -0.0000355 0.0
0.0067714 -0.0000364 0.0
0.0067547 -0.0000348 0.0
0.0067283 -0.0000296 0.0
0.0066884 -0.0000200 0.0
0.0066301 -0.0000053 0.0
0.0065483 0.0000150 0.0
0.0064375 0.0000412 0.0
0.0062917 0.0000732 0.0
0.0061051 0.0001113 0.0
0.0058717 0.0001554 0.0
0.0055855 0.0002054 0.0
0.0052404 0.0002615 0.0
0.0048304 0.0003236 0.0
0.0043492 0.0003920 0.0
0.0037906 0.0004667 0.0
0.0031481 0.0005482 0.0
0.0024154 0.0006364 0.0
0.0015856 0.0007318 0.0
0.0006523 0.0008344 0.0
-0.0003913 0.0009443 0.0
-0.0015515 0.0010614 0.0
-0.0028344 0.0011858 0.0
-0.0042460 0.0013171 0.0
-0.0057914 0.0014550 0.0
-0.0074753 0.0015990 0.0
-0.0093016 0.0017485 0.0
-0.0112732 0.0019027 0.0
-0.0133919 0.0020606 0.0
-0.0156585 0.0022214 0.0
-0.0180725 0.0023837 0.0
-0.0206318 0.0025463 0.0
-0.0233332 0.0027078 0.0
-0.0261717 0.0028667 0.0
-0.0291409 0.0030214 0.0
-0.0322328 0.0031703 0.0
-0.0354378 0.0033117 0.0
-0.0387449 0.0034440 0.0
-0.0421415 0.0035653 0.0
-0.0456138 0.0036741 0.0
-0.0491466 0.0037688 0.0
-0.0527236 0.0038479 0.0
-0.0563274 0.0039098 0.0
-0.0599398 0.0039533 0.0
-0.0635420 0.0039772 0.0
-0.0671144 0.0039803 0.0
-0.0706371 0.0039617 0.0
-0.0740899 0.0039206 0.0
-0.0774526 0.0038564 0.0
-0.0807047 0.0037684 0.0
-0.0838263 0.0036564 0.0
-0.0867975 0.0035201 0.0
-0.0895988 0.0033595 0.0
-0.0922113 0.0031745 0.0
-0.0946166 0.0029655 0.0
-0.0967971 0.0027327 0.0
-0.0987361 0.0024767 0.0
-0.1004174 0.0021980 0.0
-0.1018262 0.0018975 0.0
-0.1029485 0.0015762 0.0
-0.1037715 0.0012350 0.0
-0.1042835 0.0008753 0.0
-0.1044744 0.0004986 0.0
-0.1043351 0.0001065 0.0
-0.1038585 -0.0002992 0.0
-0.1030386 -0.0007164 0.0
-0.1018713 -0.0011429 0.0
-0.1003546 -0.0015762 0.0
-0.0984878 -0.0020135 0.0
-0.0962729 -0.0024520 0.0
-0.0937135 -0.0028885 0.0
-0.0908157 -0.0033197 0.0
-0.0875879 -0.0037419 0.0
-0.0840409 -0.0041515 0.0
-0.0801877 -0.0045447 0.0
-0.0760442 -0.0049176 0.0
-0.0716287 -0.0052661 0.0
-0.0669618 -0.0055863 0.0
-0.0620668 -0.0058745 0.0
-0.0569692 -0.0061268 0.0
-0.0516971 -0.0063398 0.0
-0.0462803 -0.0065104 0.0
-0.0407508 -0.0066357 0.0
-0.0351422 -0.0067135 0.0
-0.0294893 -0.0067419 0.0
-0.0238283 -0.0067199 0.0
-0.0181958 -0.0066470 0.0
-0.0126286 -0.0065233 0.0
-0.0071637 -0.0063499 0.0
-0.0018371 -0.0061285 0.0
0.0033160 -0.0058615 0.0
0.0082620 -0.0055520 0.0
0.0129695 -0.0052040 0.0
0.0174090 -0.0048218 0.0
0.0215544 -0.0044104 0.0
0.0253823 -0.0039752 0.0
0.0288732 -0.0035217 0.0
0.0320110 -0.0030560 0.0
0.0347839 -0.0025840 0.0
0.0371838 -0.0021114 0.0
0.0392071 -0.0016441 0.0
0.0408543 -0.0011876 0.0
0.0421297 -0.0007468 0.0
0.0430419 -0.0003265 0.0
0.0436031 0.0000692 0.0
0.0438287 0.0004369 0.0
0.0437377 0.0007736 0.0
0.0433514 0.0010771 0.0
0.0426937 0.0013458 0.0
0.0417904 0.0015788 0.0
0.0406686 0.0017759 0.0
0.0393562 0.0019375 0.0
0.0378819 0.0020644 0.0
0.0362739 0.0021580 0.0
0.0345603 0.0022204 0.0
0.0327678 0.0022537 0.0
0.0309221 0.0022605 0.0
0.0290470 0.0022437 0.0
0.0271644 0.0022060 0.0
0.0252939 0.0021505 0.0
0.0234530 0.0020801 0.0
0.0216567 0.0019976 0.0
0.0199174 0.0019059 0.0
0.0182453 0.0018074 0.0
0.0166484 0.0017044 0.0
0.0151324 0.0015991 0.0
0.0137012 0.0014931 0.0
0.0123569 0.0013882 0.0
0.0111001 0.0012855 0.0
0.0099301 0.0011863 0.0
0.0088449 0.0010912 0.0
0.0078418 0.0010011 0.0
0.0069172 0.0009163 0.0
0.0060672 0.0008372 0.0
0.0052873 0.0007639 0.0
0.0045729 0.0006962 0.0
0.0039196 0.0006340 0.0
0.0033231 0.0005768 0.0
0.0027793 0.0005238 0.0
0.0022851 0.0004740 0.0
0.0018381 0.0004262 0.0
0.0014370 0.0003791 0.0
0.0010815 0.0003311 0.0
0.0007726 0.0002805 0.0
0.0005124 0.0002264 0.0
0.0003035 0.0001680 0.0
0.0001482 0.0001067 0.0
0.0000473 0.0000462 0.0
-0.0000024 -0.0000045 0.0
-0.0000109 -0.0000291 0.0
0.0000000 0.0000000 0.0
0.0000000 0.0000000 0.0
0.0000388 -0.0000816 0.0
0.0001724 -0.0002403 0.0
0.0004086 -0.0004260 0.0
0.0007470 -0.0006101 0.0
0.0011800 -0.0007762 0.0
0.0016948 -0.0009151 0.0
0.0022756 -0.0010221 0.0
0.0029043 -0.0010951 0.0
0.0035625 -0.0011342 0.0
0.0042317 -0.0011409 0.0
0.0048949 -0.0011181 0.0
0.0055365 -0.0010694 0.0
0.0061431 -0.0009995 0.0
0.0067040 -0.0009131 0.0
0.0072111 -0.0008154 0.0
0.0076590 -0.0007113 0.0
0.0080450 -0.0006055 0.0
0.0083690 -0.0005023 0.0
0.0086326 -0.0004052 0.0
0.0088397 -0.0003170 0.0
0.0089952 -0.0002399 0.0
0.0091052 -0.0001749 0.0
0.0091760 -0.0001225 0.0
0.0092140 -0.0000824 0.0
0.0092253 -0.0000534 0.0
0.0092152 -0.0000340 0.0
0.0091878 -0.0000219 0.0
0.0091459 -0.0000147 0.0
0.0090908 -0.0000096 0.0
0.0090223 -0.0000039 0.0
0.0089384 0.0000051 0.0
0.0088358 0.0000199 0.0
0.0087096 0.0000427 0.0
0.0085538 0.0000754 0.0
0.0083615 0.0001193 0.0
0.0081249 0.0001755 0.0
0.0078358 0.0002446 0.0
0.0074854 0.0003269 0.0
0.0070650 0.0004226 0.0
0.0065656 0.0005319 0.0
0.0059782 0.0006546 0.0
0.0052937 0.0007910 0.0
0.0045029 0.0009412 0.0
0.0035967 0.0011053 0.0
0.0025658 0.0012838 0.0
0.0014008 0.0014768 0.0
0.0000926 0.0016848 0.0
-0.0013682 0.0019079 0.0
-0.0029904 0.0021462 0.0
-0.0047827 0.0023995 0.0
-0.0067530 0.0026675 0.0
-0.0089088 0.0029495 0.0
-0.0112564 0.0032447 0.0
-0.0138011 0.0035518 0.0
-0.0165469 0.0038693 0.0
-0.0194961 0.0041954 0.0
-0.0226496 0.0045281 0.0
-0.0260062 0.0048649 0.0
-0.0295628 0.0052033 0.0
-0.0333141 0.0055402 0.0
-0.0372528 0.0058726 0.0
-0.0413692 0.0061971 0.0
-0.0456514 0.0065105 0.0
-0.0500854 0.0068091 0.0
-0.0546552 0.0070894 0.0
-0.0593425 0.0073480 0.0
-0.0641275 0.0075815 0.0
-0.0689887 0.0077864 0.0
-0.0739031 0.0079598 0.0
-0.0788467 0.0080986 0.0
-0.0837943 0.0082004 0.0
-0.0887202 0.0082626 0.0
-0.0935983 0.0082833 0.0
-0.0984023 0.0082608 0.0
-0.1031058 0.0081935 0.0
-0.1076828 0.0080806 0.0
-0.1121076 0.0079211 0.0
-0.1163553 0.0077148 0.0
-0.1204017 0.0074614 0.0
-0.1242235 0.0071612 0.0
-0.1277984 0.0068147 0.0
-0.1311053 0.0064225 0.0
-0.1341242 0.0059856 0.0
-0.1368365 0.0055053 0.0
-0.1392248 0.0049830 0.0
-0.1412732 0.0044203 0.0
-0.1429669 0.0038192 0.0
-0.1442928 0.0031817 0.0
-0.1452391 0.0025102 0.0
-0.1457958 0.0018072 0.0
-0.1459539 0.0010756 0.0
-0.1457064 0.0003184 0.0
-0.1450478 -0.0004612 0.0
-0.1439742 -0.0012595 0.0
-0.1424833 -0.0020726 0.0
-0.1405748 -0.0028963 0.0
-0.1382502 -0.0037262 0.0
-0.1355127 -0.0045575 0.0
-0.1323677 -0.0053850 0.0
-0.1288227 -0.0062034 0.0
-0.1248870 -0.0070070 0.0
-0.1205724 -0.0077898 0.0
-0.1158928 -0.0085456 0.0
-0.1108646 -0.0092681 0.0
-0.1055064 -0.0099509 0.0
-0.0998392 -0.0105875 0.0
-0.0938863 -0.0111714 0.0
-0.0876735 -0.0116964 0.0
-0.0812288 -0.0121563 0.0
-0.0745825 -0.0125456 0.0
-0.0677669 -0.0128590 0.0
-0.0608163 -0.0130918 0.0
-0.0537667 -0.0132403 0.0
-0.0466556 -0.0133012 0.0
-0.0395217 -0.0132727 0.0
-0.0324046 -0.0131534 0.0
-0.0253446 -0.0129436 0.0
-0.0183819 -0.0126443 0.0
-0.0115566 -0.0122581 0.0
-0.0049081 -0.0117884 0.0
0.0015252 -0.0112400 0.0
0.0077065 -0.0106189 0.0
0.0136012 -0.0099320 0.0
0.0191768 -0.0091871 0.0
0.0244038 -0.0083929 0.0
0.0292558 -0.0075586 0.0
0.0337098 -0.0066942 0.0
0.0377469 -0.0058096 0.0
0.0413519 -0.0049152 0.0
0.0445140 -0.0040211 0.0
0.0472267 -0.0031372 0.0
0.0494880 -0.0022730 0.0
0.0513002 -0.0014376 0.0
0.0526700 -0.0006393 0.0
0.0536087 0.0001145 0.0
0.0541311 0.0008174 0.0
0.0542565 0.0014637 0.0
0.0540072 0.0020491 0.0
0.0534090 0.0025703 0.0
0.0524903 0.0030253 0.0
0.0512820 0.0034130 0.0
0.0498164 0.0037338 0.0
0.0481272 0.0039888 0.0
0.0462486 0.0041803 0.0
0.0442149 0.0043115 0.0
0.0420597 0.0043864 0.0
0.0398155 0.0044096 0.0
0.0375132 0.0043861 0.0
0.0351817 0.0043214 0.0
0.0328473 0.0042211 0.0
0.0305336 0.0040909 0.0
0.0282615 0.0039361 0.0
0.0260486 0.0037622 0.0
0.0239099 0.0035741 0.0
0.0218572 0.0033764 0.0
0.0198995 0.0031733 0.0
0.0180432 0.0029683 0.0
0.0162925 0.0027646 0.0
0.0146493 0.0025649 0.0
0.0131137 0.0023714 0.0
0.0116843 0.0021859 0.0
0.0103583 0.0020096 0.0
0.0091319 0.0018436 0.0
0.0080006 0.0016883 0.0
0.0069593 0.0015438 0.0
0.0060028 0.0014098 0.0
0.0051260 0.0012855 0.0
0.0043242 0.0011695 0.0
0.0035933 0.0010601 0.0
0.0029301 0.0009550 0.0
0.0023326 0.0008516 0.0
0.0018003 0.0007469 0.0
0.0013339 0.0006384 0.0
0.0009351 0.0005238 0.0
0.0006066 0.0004026 0.0
0.0003506 0.0002770 0.0
0.0001679 0.0001536 0.0
0.0000559 0.0000467 0.0
0.0000059 -0.0000185 0.0
0.0000000 0.0000000 0.0
0.0000000 0.0000000 0.0
0.0000656 -0.0001905 0.0
0.0002594 -0.0004623 0.0
0.0005789 -0.0007611 0.0
0.0010179 -0.0010521 0.0
0.0015650 -0.0013135 0.0
0.0022047 -0.0015321 0.0
0.0029180 -0.0017002 0.0
0.0036840 -0.0018145 0.0
0.0044814 -0.0018748 0.0
0.0052889 -0.0018834 0.0
0.0060864 -0.0018445 0.0
0.0068561 -0.0017640 0.0
0.0075823 -0.0016489 0.0
0.0082523 -0.0015070 0.0
0.0088567 -0.0013462 0.0
0.0093890 -0.0011745 0.0
0.0098456 -0.0009993 0.0
0.0102260 -0.0008273 0.0
0.0105318 -0.0006643 0.0
0.0107668 -0.0005148 0.0
0.0109364 -0.0003820 0.0
0.0110470 -0.0002679 0.0
0.0111054 -0.0001733 0.0
0.0111184 -0.0000974 0.0
0.0110923 -0.0000386 0.0
0.0110326 0.0000058 0.0
0.0109433 0.0000393 0.0
0.0108268 0.0000660 0.0
0.0106836 0.0000904 0.0
0.0105126 0.0001169 0.0
0.0103103 0.0001501 0.0
0.0100718 0.0001940 0.0
0.0097902 0.0002523 0.0
0.0094573 0.0003281 0.0
0.0090637 0.0004236 0.0
0.0085990 0.0005408 0.0
0.0080523 0.0006807 0.0
0.0074121 0.0008440 0.0
0.0066666 0.0010311 0.0
0.0058040 0.0012422 0.0
0.0048122 0.0014774 0.0
0.0036792 0.0017368 0.0
0.0023930 0.0020206 0.0
0.0009417 0.0023291 0.0
-0.0006867 0.0026626 0.0
-0.0025038 0.0030214 0.0
-0.0045209 0.0034055 0.0
-0.0067490 0.0038148 0.0
-0.0091981 0.0042488 0.0
-0.0118776 0.0047069 0.0
-0.0147954 0.0051876 0.0
-0.0179582 0.0056892 0.0
-0.0213707 0.0062094 0.0
-0.0250358 0.0067455 0.0
-0.0289543 0.0072941 0.0
-0.0331242 0.0078512 0.0
-0.0375412 0.0084128 0.0
-0.0421980 0.0089738 0.0
-0.0470846 0.0095293 0.0
-0.0521882 0.0100737 0.0
-0.0574929 0.0106014 0.0
-0.0629802 0.0111064 0.0
-0.0686290 0.0115830 0.0
-0.0744158 0.0120252 0.0
-0.0803149 0.0124274 0.0
-0.0862989 0.0127841 0.0
-0.0923387 0.0130902 0.0
-0.0984043 0.0133409 0.0
-0.1044648 0.0135321 0.0
-0.1104887 0.0136600 0.0
-0.1164447 0.0137214 0.0
-0.1223017 0.0137139 0.0
-0.1280290 0.0136354 0.0
-0.1335969 0.0134846 0.0
-0.1389767 0.0132608 0.0
-0.1441408 0.0129635 0.0
-0.1490632 0.0125932 0.0
-0.1537194 0.0121505 0.0
-0.1580863 0.0116366 0.0
-0.1621427 0.0110531 0.0
-0.1658689 0.0104019 0.0
-0.1692470 0.0096853 0.0
-0.1722607 0.0089058 0.0
-0.1748952 0.0080661 0.0
-0.1771376 0.0071693 0.0