# vtk DataFile Version 2.0
Lid Driven Cavity Flow
ASCII
DATASET STRUCTURED_GRID
DIMENSIONS 151 151 1
POINTS 22801 float
0.0000000 0.0000000 0.0
0.0066667 0.0000000 0.0
0.0133333 0.0000000 0.0
0.0200000 0.0000000 0.0
0.0266667 0.0000000 0.0
0.0333333 0.0000000 0.0
0.0400000 0.0000000 0.0
0.0466667 0.0000000 0.0
0.0533333 0.0000000 0.0
0.0600000 0.0000000 0.0
0.0666667 0.0000000 0.0
0.0733333 0.0000000 0.0
0.0800000 0.0000000 0.0
0.0866667 0.0000000 0.0
0.0933333 0.0000000 0.0
0.1000000 0.0000000 0.0
0.1066667 0.0000000 0.0
0.1133333 0.0000000 0.0
0.1200000 0.0000000 0.0
0.1266667 0.0000000 0.0
0.1333333 0.0000000 0.0
0.1400000 0.0000000 0.0
0.1466667 0.0000000 0.0
0.1533333 0.0000000 0.0
0.1600000 0.0000000 0.0
0.1666667 0.0000000 0.0
0.1733333 0.0000000 0.0
0.1800000 0.0000000 0.0
0.1866667 0.0000000 0.0
0.1933333 0.0000000 0.0
0.2000000 0.0000000 0.0
0.2066667 0.0000000 0.0
0.2133333 0.0000000 0.0
0.2200000 0.0000000 0.0
0.2266667 0.0000000 0.0
0.2333333 0.0000000 0.0
0.2400000 0.0000000 0.0
0.2466667 0.0000000 0.0
0.2533333 0.0000000 0.0
0.2600000 0.0000000 0.0
0.2666667 0.0000000 0.0
0.2733333 0.0000000 0.0
0.2800000 0.0000000 0.0
0.2866667 0.0000000 0.0
0.2933333 0.0000000 0.0
0.3000000 0.0000000 0.0
0.3066667 0.0000000 0.0
0.3133333 0.0000000 0.0
0.3200000 0.0000000 0.0
0.3266667 0.0000000 0.0
0.3333333 0.0000000 0.0
0.3400000 0.0000000 0.0
0.3466667 0.0000000 0.0
0.3533333 0.0000000 0.0
0.3600000 0.0000000 0.0
0.3666667 0.0000000 0.0
0.3733333 0.0000000 0.0
0.3800000 0.0000000 0.0
0.3866667 0.0000000 0.0
0.3933333 0.0000000 0.0
0.4000000 0.0000000 0.0
0.4066667 0.0000000 0.0
0.4133333 0.0000000 0.0
0.4200000 0.0000000 0.0
0.4266667 0.0000000 0.0
0.4333333 0.0000000 0.0
0.4400000 0.0000000 0.0
0.4466667 0.0000000 0.0
0.4533333 0.0000000 0.0
0.4600000 0.0000000 0.0
0.4666667 0.0000000 0.0
0.4733333 0.0000000 0.0
0.4800000 0.0000000 0.0
0.4866667 0.0000000 0.0
0.4933333 0.0000000 0.0
0.5000000 0.0000000 0.0
0.5066667 0.0000000 0.0
0.5133333 0.0000000 0.0
0.5200000 0.0000000 0.0
0.5266667 0.0000000 0.0
0.5333333 0.0000000 0.0
0.5400000 0.0000000 0.0
0.5466667 0.0000000 0.0
0.5533333 0.0000000 0.0
0.5600000 0.0000000 0.0
0.5666667 0.0000000 0.0
0.5733333 0.0000000 0.0
0.5800000 0.0000000 0.0
0.5866667 0.0000000 0.0
0.5933333 0.0000000 0.0
0.6000000 0.0000000 0.0
0.6066667 0.0000000 0.0
0.6133333 0.0000000 0.0
0.6200000 0.0000000 0.0
0.6266667 0.0000000 0.0
0.6333333 0.0000000 0.0
0.6400000 0.0000000 0.0
0.6466667 0.0000000 0.0
0.6533333 0.0000000 0.0
0.6600000 0.0000000 0.0
0.6666667 0.0000000 0.0
0.6733333 0.0000000 0.0
0.6800000 0.0000000 0.0
0.6866667 0.0000000 0.0
0.6933333 0.0000000 0.0
0.7000000 0.0000000 0.0
0.7066667 0.0000000 0.0
0.7133333 0.0000000 0.0
0.7200000 0.0000000 0.0
0.7266667 0.0000000 0.0
0.7333333 0.0000000 0.0
0.7400000 0.0000000 0.0
0.7466667 0.0000000 0.0
0.7533333 0.0000000 0.0
0.7600000 0.0000000 0.0
0.7666667 0.0000000 0.0
0.7733333 0.0000000 0.0
0.7800000 0.0000000 0.0
0.7866667 0.0000000 0.0
0.7933333 0.0000000 0.0
0.8000000 0.0000000 0.0
0.8066667 0.0000000 0.0
0.8133333 0.0000000 0.0
0.8200000 0.0000000 0.0
0.8266667 0.0000000 0.0
0.8333333 0.0000000 0.0
0.8400000 0.0000000 0.0
0.8466667 0.0000000 0.0
0.8533333 0.0000000 0.0
0.8600000 0.0000000 0.0
0.8666667 0.0000000 0.0
0.8733333 0.0000000 0.0
0.8800000 0.0000000 0.0
0.8866667 0.0000000 0.0
0.8933333 0.0000000 0.0
0.9000000 0.0000000 0.0
0.9066667 0.0000000 0.0
0.9133333 0.0000000 0.0
0.9200000 0.0000000 0.0
0.9266667 0.0000000 0.0
0.9333333 0.0000000 0.0
0.9400000 0.0000000 0.0
0.9466667 0.0000000 0.0
0.9533333 0.0000000 0.0
0.9600000 0.0000000 0.0
0.9666667 0.0000000 0.0
0.9733333 0.0000000 0.0
0.9800000 0.0000000 0.0
0.9866667 0.0000000 0.0
0.9933333 0.0000000 0.0
1.0000000 0.0000000 0.0
0.0000000 0.0066667 0.0
0.0066667 0.0066667 0.0
0.0133333 0.0066667 0.0
0.0200000 0.0066667 0.0
0.0266667 0.0066667 0.0
0.0333333 0.0066667 0.0
0.0400000 0.0066667 0.0
0.0466667 0.0066667 0.0
0.0533333 0.0066667 0.0
0.0600000 0.0066667 0.0
0.0666667 0.0066667 0.0
0.0733333 0.0066667 0.0
0.0800000 0.0066667 0.0
0.0866667 0.0066667 0.0
0.0933333 0.0066667 0.0
0.1000000 0.0066667 0.0
0.1066667 0.0066667 0.0
0.1133333 0.0066667 0.0
0.1200000 0.0066667 0.0
0.1266667 0.0066667 0.0
0.1333333 0.0066667 0.0
0.1400000 0.0066667 0.0
0.1466667 0.0066667 0.0
0.1533333 0.0066667 0.0
0.1600000 0.0066667 0.0
0.1666667 0.0066667 0.0
0.1733333 0.0066667 0.0
0.1800000 0.0066667 0.0
0.1866667 0.0066667 0.0
0.1933333 0.0066667 0.0
0.2000000 0.0066667 0.0
0.2066667 0.0066667 0.0
0.2133333 0.0066667 0.0
0.2200000 0.0066667 0.0
0.2266667 0.0066667 0.0
0.2333333 0.0066667 0.0
0.2400000 0.0066667 0.0
0.2466667 0.0066667 0.0
0.2533333 0.0066667 0.0
0.2600000 0.0066667 0.0
0.2666667 0.0066667 0.0
0.2733333 0.0066667 0.0
0.2800000 0.0066667 0.0
0.2866667 0.0066667 0.0
0.2933333 0.0066667 0.0
0.3000000 0.0066667 0.0
0.3066667 0.0066667 0.0
0.3133333 0.0066667 0.0
0.3200000 0.0066667 0.0
0.3266667 0.0066667 0.0
0.3333333 0.0066667 0.0
0.3400000 0.0066667 0.0
0.3466667 0.0066667 0.0
0.3533333 0.0066667 0.0
0.3600000 0.0066667 0.0
0.3666667 0.0066667 0.0
0.3733333 0.0066667 0.0
0.3800000 0.0066667 0.0
0.3866667 0.0066667 0.0
0.3933333 0.0066667 0.0
0.4000000 0.0066667 0.0
0.4066667 0.0066667 0.0
0.4133333 0.0066667 0.0
0.4200000 0.0066667 0.0
0.4266667 0.0066667 0.0
0.4333333 0.0066667 0.0
0.4400000 0.0066667 0.0
0.4466667 0.0066667 0.0
0.4533333 0.0066667 0.0
0.4600000 0.0066667 0.0
0.4666667 0.0066667 0.0
0.4733333 0.0066667 0.0
0.4800000 0.0066667 0.0
0.4866667 0.0066667 0.0
0.4933333 0.0066667 0.0
0.5000000 0.0066667 0.0
0.5066667 0.0066667 0.0
0.5133333 0.0066667 0.0
0.5200000 0.0066667 0.0
0.5266667 0.0066667 0.0
0.5333333 0.0066667 0.0
0.5400000 0.0066667 0.0
0.5466667 0.0066667 0.0
0.5533333 0.0066667 0.0
0.5600000 0.0066667 0.0
0.5666667 0.0066667 0.0
0.5733333 0.0066667 0.0
0.5800000 0.0066667 0.0
0.5866667 0.0066667 0.0
0.5933333 0.0066667 0.0
0.6000000 0.0066667 0.0
0.6066667 0.0066667 0.0
0.6133333 0.0066667 0.0
0.6200000 0.0066667 0.0
0.6266667 0.0066667 0.0
0.6333333 0.0066667 0.0
0.6400000 0.0066667 0.0
0.6466667 0.0066667 0.0
0.6533333 0.0066667 0.0
0.6600000 0.0066667 0.0
0.6666667 0.0066667 0.0
0.6733333 0.0066667 0.0
0.6800000 0.0066667 0.0
0.6866667 0.0066667 0.0
0.6933333 0.0066667 0.0
0.7000000 0.0066667 0.0
0.7066667 0.0066667 0.0
0.7133333 0.0066667 0.0
0.7200000 0.0066667 0.0
0.7266667 0.0066667 0.0
0.7333333 0.0066667 0.0
0.7400000 0.0066667 0.0
0.7466667 0.0066667 0.0
0.7533333 0.0066667 0.0
0.7600000 0.0066667 0.0
0.7666667 0.0066667 0.0
0.7733333 0.0066667 0.0
0.7800000 0.0066667 0.0
0.7866667 0.0066667 0.0
0.7933333 0.0066667 0.0
0.8000000 0.0066667 0.0
0.8066667 0.0066667 0.0
0.8133333 0.0066667 0.0
0.8200000 0.0066667 0.0
0.8266667 0.0066667 0.0
0.8333333 0.0066667 0.0
0.8400000 0.0066667 0.0
0.8466667 0.0066667 0.0
0.8533333 0.0066667 0.0
0.8600000 0.0066667 0.0
0.8666667 0.0066667 0.0
0.8733333 0.0066667 0.0
0.8800000 0.0066667 0.0
0.8866667 0.0066667 0.0
0.8933333 0.0066667 0.0
0.9000000 0.0066667 0.0
0.9066667 0.0066667 0.0
0.9133333 0.0066667 0.0
0.9200000 0.0066667 0.0
0.9266667 0.0066667 0.0
0.9333333 0.0066667 0.0
0.9400000 0.0066667 0.0
0.9466667 0.0066667 0.0
0.9533333 0.0066667 0.0
0.9600000 0.0066667 0.0
0.9666667 0.0066667 0.0
0.9733333 0.0066667 0.0
0.9800000 0.0066667 0.0
0.9866667 0.0066667 0.0
0.9933333 0.0066667 0.0
1.0000000 0.0066667 0.0
0.0000000 0.0133333 0.0
0.0066667 0.0133333 0.0
0.0133333 0.0133333 0.0
0.0200000 0.0133333 0.0
0.0266667 0.0133333 0.0
0.0333333 0.0133333 0.0
0.0400000 0.0133333 0.0
0.0466667 0.0133333 0.0
0.0533333 0.0133333 0.0
0.0600000 0.0133333 0.0
0.0666667 0.0133333 0.0
0.0733333 0.0133333 0.0
0.0800000 0.0133333 0.0
0.0866667 0.0133333 0.0
0.0933333 0.0133333 0.0
0.1000000 0.0133333 0.0
0.1066667 0.0133333 0.0
0.1133333 0.0133333 0.0
0.1200000 0.0133333 0.0
0.1266667 0.0133333 0.0
0.1333333 0.0133333 0.0
0.1400000 0.0133333 0.0
0.1466667 0.0133333 0.0
0.1533333 0.0133333 0.0
0.1600000 0.0133333 0.0
0.1666667 0.0133333 0.0
0.1733333 0.0133333 0.0
0.1800000 0.0133333 0.0
0.1866667 0.0133333 0.0
0.1933333 0.0133333 0.0
0.2000000 0.0133333 0.0
0.2066667 0.0133333 0.0
0.2133333 0.0133333 0.0
0.2200000 0.0133333 0.0
0.2266667 0.0133333 0.0
0.2333333 0.0133333 0.0
0.2400000 0.0133333 0.0
0.2466667 0.0133333 0.0
0.2533333 0.0133333 0.0
0.2600000 0.0133333 0.0
0.2666667 0.0133333 0.0
0.2733333 0.0133333 0.0
0.2800000 0.0133333 0.0
0.2866667 0.0133333 0.0
0.2933333 0.0133333 0.0
0.3000000 0.0133333 0.0
0.3066667 0.0133333 0.0
0.3133333 0.0133333 0.0
0.3200000 0.0133333 0.0
0.3266667 0.0133333 0.0
0.3333333 0.0133333 0.0
0.3400000 0.0133333 0.0
0.3466667 0.0133333 0.0
0.3533333 0.0133333 0.0
0.3600000 0.0133333 0.0
0.3666667 0.0133333 0.0
0.3733333 0.0133333 0.0
0.3800000 0.0133333 0.0
0.3866667 0.0133333 0.0
0.3933333 0.0133333 0.0
0.4000000 0.0133333 0.0
0.4066667 0.0133333 0.0
0.4133333 0.0133333 0.0
0.4200000 0.0133333 0.0
0.4266667 0.0133333 0.0
0.4333333 0.0133333 0.0
0.4400000 0.0133333 0.0
0.4466667 0.0133333 0.0
0.4533333 0.0133333 0.0
0.4600000 0.0133333 0.0
0.4666667 0.0133333 0.0
0.4733333 0.0133333 0.0
0.4800000 0.0133333 0.0
0.4866667 0.0133333 0.0
0.4933333 0.0133333 0.0
0.5000000 0.0133333 0.0
0.5066667 0.0133333 0.0
0.5133333 0.0133333 0.0
0.5200000 0.0133333 0.0
0.5266667 0.0133333 0.0
0.5333333 0.0133333 0.0
0.5400000 0.0133333 0.0
0.5466667 0.0133333 0.0
0.5533333 0.0133333 0.0
0.5600000 0.0133333 0.0
0.5666667 0.0133333 0.0
0.5733333 0.0133333 0.0
0.5800000 0.0133333 0.0
0.5866667 0.0133333 0.0
0.5933333 0.0133333 0.0
0.6000000 0.0133333 0.0
0.6066667 0.0133333 0.0
0.6133333 0.0133333 0.0
0.6200000 0.0133333 0.0
0.6266667 0.0133333 0.0
0.6333333 0.0133333 0.0
0.6400000 0.0133333 0.0
0.6466667 0.0133333 0.0
0.6533333 0.0133333 0.0
0.6600000 0.0133333 0.0
0.6666667 0.0133333 0.0
0.6733333 0.0133333 0.0
0.6800000 0.0133333 0.0
0.6866667 0.0133333 0.0
0.6933333 0.0133333 0.0
0.7000000 0.0133333 0.0
0.7066667 0.0133333 0.0
0.7133333 0.0133333 0.0
0.7200000 0.0133333 0.0
[...]
POINT_DATA 22801
VECTORS velocity float
0.0000000 0.0000000 0.0
0.0000000 0.0000000 0.0
0.0000000 0.0000000 0.0
0.0000000 0.0000000 0.0
0.0000000 0.0000000 0.0
0.0000000 0.0000000 0.0
0.0000000 0.0000000 0.0
0.0000000 0.0000000 0.0
0.0000000 0.0000000 0.0
0.0000000 0.0000000 0.0
0.0000000 0.0000000 0.0
0.0000000 0.0000000 0.0
0.0000000 0.0000000 0.0
0.0000000 0.0000000 0.0
0.0000000 0.0000000 0.0
0.0000000 0.0000000 0.0
0.0000000 0.0000000 0.0
0.0000000 0.0000000 0.0
0.0000000 0.0000000 0.0
0.0000000 0.0000000 0.0
0.0000000 0.0000000 0.0
0.0000000 0.0000000 0.0
0.0000000 0.0000000 0.0
0.0000000 0.0000000 0.0
0.0000000 0.0000000 0.0
0.0000000 0.0000000 0.0
0.0000000 0.0000000 0.0
0.0000000 0.0000000 0.0
0.0000000 0.0000000 0.0
0.0000000 0.0000000 0.0
0.0000000 0.0000000 0.0
0.0000000 0.0000000 0.0
0.0000000 0.0000000 0.0
0.0000000 0.0000000 0.0
0.0000000 0.0000000 0.0
0.0000000 0.0000000 0.0
0.0000000 0.0000000 0.0
0.0000000 0.0000000 0.0
0.0000000 0.0000000 0.0
0.0000000 0.0000000 0.0
0.0000000 0.0000000 0.0
0.0000000 0.0000000 0.0
0.0000000 0.0000000 0.0
0.0000000 0.0000000 0.0
0.0000000 0.0000000 0.0
0.0000000 0.0000000 0.0
0.0000000 0.0000000 0.0
0.0000000 0.0000000 0.0
0.0000000 0.0000000 0.0
0.0000000 0.0000000 0.0
0.0000000 0.0000000 0.0
0.0000000 0.0000000 0.0
0.0000000 0.0000000 0.0
0.0000000 0.0000000 0.0
0.0000000 0.0000000 0.0
0.0000000 0.0000000 0.0
0.0000000 0.0000000 0.0
0.0000000 0.0000000 0.0
0.0000000 0.0000000 0.0
0.0000000 0.0000000 0.0
0.0000000 0.0000000 0.0
0.0000000 0.0000000 0.0
0.0000000 0.0000000 0.0
0.0000000 0.0000000 0.0
0.0000000 0.0000000 0.0
0.0000000 0.0000000 0.0
0.0000000 0.0000000 0.0
0.0000000 0.0000000 0.0
0.0000000 0.0000000 0.0
0.0000000 0.0000000 0.0
0.0000000 0.0000000 0.0
0.0000000 0.0000000 0.0
0.0000000 0.0000000 0.0
0.0000000 0.0000000 0.0
0.0000000 0.0000000 0.0
0.0000000 0.0000000 0.0
0.0000000 0.0000000 0.0
0.0000000 0.0000000 0.0
0.0000000 0.0000000 0.0
0.0000000 0.0000000 0.0
0.0000000 0.0000000 0.0
0.0000000 0.0000000 0.0
0.0000000 0.0000000 0.0
0.0000000 0.0000000 0.0
0.0000000 0.0000000 0.0
0.0000000 0.0000000 0.0
0.0000000 0.0000000 0.0
0.0000000 0.0000000 0.0
0.0000000 0.0000000 0.0
0.0000000 0.0000000 0.0
0.0000000 0.0000000 0.0
0.0000000 0.0000000 0.0
0.0000000 0.0000000 0.0
0.0000000 0.0000000 0.0
0.0000000 0.0000000 0.0
0.0000000 0.0000000 0.0
0.0000000 0.0000000 0.0
0.0000000 0.0000000 0.0
0.0000000 0.0000000 0.0
0.0000000 0.0000000 0.0
0.0000000 0.0000000 0.0
0.0000000 0.0000000 0.0
0.0000000 0.0000000 0.0
0.0000000 0.0000000 0.0
0.0000000 0.0000000 0.0
0.0000000 0.0000000 0.0
0.0000000 0.0000000 0.0
0.0000000 0.0000000 0.0
0.0000000 0.0000000 0.0
0.0000000 0.0000000 0.0
0.0000000 0.0000000 0.0
0.0000000 0.0000000 0.0
0.0000000 0.0000000 0.0
0.0000000 0.0000000 0.0
0.0000000 0.0000000 0.0
0.0000000 0.0000000 0.0
0.0000000 0.0000000 0.0
0.0000000 0.0000000 0.0
0.0000000 0.0000000 0.0
0.0000000 0.0000000 0.0
0.0000000 0.0000000 0.0
0.0000000 0.0000000 0.0
0.0000000 0.0000000 0.0
0.0000000 0.0000000 0.0
0.0000000 0.0000000 0.0
0.0000000 0.0000000 0.0
0.0000000 0.0000000 0.0
0.0000000 0.0000000 0.0
0.0000000 0.0000000 0.0
0.0000000 0.0000000 0.0
0.0000000 0.0000000 0.0
0.0000000 0.0000000 0.0
0.0000000 0.0000000 0.0
0.0000000 0.0000000 0.0
0.0000000 0.0000000 0.0
0.0000000 0.0000000 0.0
0.0000000 0.0000000 0.0
0.0000000 0.0000000 0.0
0.0000000 0.0000000 0.0
0.0000000 0.0000000 0.0
0.0000000 0.0000000 0.0
0.0000000 0.0000000 0.0
0.0000000 0.0000000 0.0
0.0000000 0.0000000 0.0
0.0000000 0.0000000 0.0
0.0000000 0.0000000 0.0
0.0000000 0.0000000 0.0
0.0000000 0.0000000 0.0
0.0000000 0.0000000 0.0
0.0000000 0.0000000 0.0
0.0000058 0.0000000 0.0
0.0000000 0.0000000 0.0
-0.0000031 0.0000026 0.0
0.0000520 -0.0000385 0.0
0.0001855 -0.0000882 0.0
0.0003961 -0.0001334 0.0
0.0006731 -0.0001698 0.0
0.0010012 -0.0001958 0.0
0.0013635 -0.0002112 0.0
0.0017432 -0.0002166 0.0
0.0021241 -0.0002130 0.0
0.0024921 -0.0002017 0.0
0.0028356 -0.0001845 0.0
0.0031457 -0.0001631 0.0
0.0034166 -0.0001394 0.0
0.0036453 -0.0001151 0.0
0.0038318 -0.0000918 0.0
0.0039784 -0.0000706 0.0
0.0040890 -0.0000526 0.0
0.0041692 -0.0000383 0.0
0.0042251 -0.0000279 0.0
0.0042630 -0.0000213 0.0
0.0042888 -0.0000183 0.0
0.0043077 -0.0000181 0.0
0.0043236 -0.0000200 0.0
0.0043391 -0.0000231 0.0
0.0043552 -0.0000266 0.0
0.0043712 -0.0000294 0.0
0.0043850 -0.0000308 0.0
0.0043932 -0.0000302 0.0
0.0043914 -0.0000270 0.0
0.0043742 -0.0000210 0.0
0.0043361 -0.0000119 0.0
0.0042710 0.0000002 0.0
0.0041729 0.0000154 0.0
0.0040357 0.0000336 0.0
0.0038533 0.0000548 0.0
0.0036197 0.0000791 0.0
0.0033286 0.0001066 0.0
0.0029736 0.0001374 0.0
0.0025479 0.0001716 0.0
0.0020448 0.0002097 0.0
0.0014572 0.0002516 0.0
0.0007778 0.0002975 0.0
-0.0000003 0.0003476 0.0
-0.0008842 0.0004017 0.0
-0.0018803 0.0004599 0.0
-0.0029947 0.0005220 0.0
-0.0042326 0.0005876 0.0
-0.0055984 0.0006565 0.0
-0.0070952 0.0007281 0.0
-0.0087248 0.0008018 0.0
-0.0104877 0.0008770 0.0
-0.0123825 0.0009528 0.0
-0.0144061 0.0010284 0.0
-0.0165535 0.0011029 0.0
-0.0188178 0.0011751 0.0
-0.0211900 0.0012439 0.0
-0.0236591 0.0013084 0.0
-0.0262124 0.0013673 0.0
-0.0288352 0.0014195 0.0
-0.0315111 0.0014638 0.0
-0.0342221 0.0014993 0.0
-0.0369489 0.0015248 0.0
-0.0396710 0.0015394 0.0
-0.0423668 0.0015423 0.0
-0.0450140 0.0015326 0.0
-0.0475897 0.0015097 0.0
-0.0500706 0.0014729 0.0
-0.0524334 0.0014219 0.0
-0.0546546 0.0013561 0.0
-0.0567111 0.0012754 0.0
-0.0585802 0.0011796 0.0
-0.0602399 0.0010687 0.0
-0.0616687 0.0009429 0.0
-0.0628466 0.0008025 0.0
-0.0637545 0.0006479 0.0
-0.0643747 0.0004799 0.0
-0.0646913 0.0002991 0.0
-0.0646901 0.0001068 0.0
-0.0643593 -0.0000958 0.0
-0.0636892 -0.0003072 0.0
-0.0626729 -0.0005256 0.0
-0.0613065 -0.0007488 0.0
-0.0595892 -0.0009746 0.0
-0.0575238 -0.0012004 0.0
-0.0551166 -0.0014232 0.0
-0.0523781 -0.0016399 0.0
-0.0493230 -0.0018475 0.0
-0.0459700 -0.0020423 0.0
-0.0423425 -0.0022210 0.0
-0.0384678 -0.0023802 0.0
-0.0343778 -0.0025166 0.0
-0.0301080 -0.0026271 0.0
-0.0256979 -0.0027090 0.0
-0.0211897 -0.0027600 0.0
-0.0166286 -0.0027785 0.0
-0.0120613 -0.0027634 0.0
-0.0075358 -0.0027144 0.0
-0.0031000 -0.0026319 0.0
0.0011988 -0.0025172 0.0
0.0053151 -0.0023724 0.0
0.0092062 -0.0022004 0.0
0.0128330 -0.0020046 0.0
0.0161611 -0.0017893 0.0
0.0191613 -0.0015588 0.0
0.0218103 -0.0013182 0.0
0.0240912 -0.0010724 0.0
0.0259937 -0.0008262 0.0
0.0275142 -0.0005845 0.0
0.0286559 -0.0003517 0.0
0.0294281 -0.0001316 0.0
0.0298461 0.0000724 0.0
0.0299304 0.0002576 0.0
0.0297062 0.0004218 0.0
0.0292024 0.0005639 0.0
0.0284506 0.0006830 0.0
0.0274846 0.0007791 0.0
0.0263390 0.0008529 0.0
0.0250488 0.0009053 0.0
0.0236480 0.0009378 0.0
0.0221693 0.0009522 0.0
0.0206433 0.0009506 0.0
0.0190977 0.0009352 0.0
0.0175575 0.0009082 0.0
0.0160439 0.0008719 0.0
0.0145751 0.0008284 0.0
0.0131654 0.0007797 0.0
0.0118261 0.0007277 0.0
0.0105651 0.0006739 0.0
0.0093876 0.0006197 0.0
0.0082963 0.0005662 0.0
0.0072916 0.0005145 0.0
0.0063722 0.0004650 0.0
0.0055354 0.0004185 0.0
0.0047772 0.0003753 0.0
0.0040930 0.0003356 0.0
0.0034774 0.0002994 0.0
0.0029249 0.0002669 0.0
0.0024298 0.0002377 0.0
0.0019869 0.0002117 0.0
0.0015913 0.0001882 0.0
0.0012392 0.0001666 0.0
0.0009282 0.0001459 0.0
0.0006572 0.0001251 0.0
0.0004270 0.0001028 0.0
0.0002403 0.0000780 0.0
0.0001008 0.0000501 0.0
0.0000119 0.0000202 0.0
-0.0000260 -0.0000074 0.0
-0.0000212 -0.0000214 0.0
0.0000000 0.0000000 0.0
0.0000000 0.0000000 0.0
0.0000355 -0.0000520 0.0
0.0001825 -0.0001886 0.0
0.0004560 -0.0003441 0.0
0.0008519 -0.0004876 0.0
0.0013537 -0.0006051 0.0
0.0019380 -0.0006905 0.0
0.0025776 -0.0007420 0.0
0.0032451 -0.0007606 0.0
0.0039139 -0.0007490 0.0
0.0045604 -0.0007116 0.0
0.0051649 -0.0006536 0.0
0.0057120 -0.0005809 0.0
0.0061914 -0.0004996 0.0
0.0065975 -0.0004153 0.0
0.0069292 -0.0003331 0.0
0.0071895 -0.0002572 0.0
0.0073842 -0.0001909 0.0
0.0075217 -0.0001361 0.0
0.0076114 -0.0000938 0.0
0.0076631 -0.0000637 0.0
0.0076861 -0.0000447 0.0
0.0076882 -0.0000348 0.0
0.0076755 -0.0000315 0.0
0.0076514 -0.0000316 0.0
0.0076168 -0.0000321 0.0
0.0075696 -0.0000298 0.0
0.0075053 -0.0000220 0.0
0.0074172 -0.0000064 0.0
0.0072964 0.0000190 0.0
0.0071329 0.0000553 0.0
0.0069154 0.0001033 0.0
0.0066325 0.0001632 0.0
0.0062719 0.0002353 0.0
0.0058217 0.0003195 0.0
0.0052697 0.0004159 0.0
0.0046035 0.0005247 0.0
0.0038107 0.0006462 0.0
0.0028787 0.0007807 0.0
0.0017946 0.0009288 0.0
0.0005456 0.0010908 0.0
-0.0008811 0.0012670 0.0
-0.0024979 0.0014575 0.0
-0.0043167 0.0016620 0.0
-0.0063482 0.0018800 0.0
-0.0086018 0.0021105 0.0
-0.0110854 0.0023523 0.0
-0.0138044 0.0026037 0.0
-0.0167619 0.0028625 0.0
-0.0199582 0.0031264 0.0
-0.0233903 0.0033925 0.0
-0.0270521 0.0036577 0.0
-0.0309335 0.0039184 0.0
-0.0350212 0.0041710 0.0
-0.0392981 0.0044117 0.0
-0.0437435 0.0046364 0.0
-0.0483332 0.0048413 0.0
-0.0530402 0.0050225 0.0
-0.0578342 0.0051761 0.0
-0.0626828 0.0052987 0.0
-0.0675515 0.0053869 0.0
-0.0724041 0.0054378 0.0
-0.0772033 0.0054489 0.0
-0.0819112 0.0054179 0.0
-0.0864895 0.0053430 0.0
-0.0909003 0.0052229 0.0
-0.0951059 0.0050566 0.0
-0.0990698 0.0048437 0.0
-0.1027565 0.0045840 0.0
-0.1061319 0.0042777 0.0
-0.1091638 0.0039256 0.0
-0.1118218 0.0035287 0.0
-0.1140774 0.0030885 0.0
-0.1159046 0.0026068 0.0
-0.1172797 0.0020857 0.0
-0.1181817 0.0015281 0.0
-0.1185922 0.0009368 0.0
-0.1184958 0.0003154 0.0
-0.1178803 -0.0003320 0.0
-0.1167367 -0.0010009 0.0
-0.1150595 -0.0016863 0.0
-0.1128468 -0.0023827 0.0
-0.1101010 -0.0030837 0.0
-0.1068283 -0.0037828 0.0
-0.1030395 -0.0044727 0.0
-0.0987499 -0.0051456 0.0
-0.0939795 -0.0057936 0.0
-0.0887534 -0.0064081 0.0
-0.0831013 -0.0069805 0.0
-0.0770584 -0.0075022 0.0
-0.0706645 -0.0079647 0.0
-0.0639644 -0.0083598 0.0
-0.0570074 -0.0086799 0.0
-0.0498472 -0.0089183 0.0
-0.0425412 -0.0090693 0.0
-0.0351498 -0.0091284 0.0
-0.0277362 -0.0090928 0.0
-0.0203651 -0.0089613 0.0
-0.0131019 -0.0087346 0.0
-0.0060116 -0.0084151 0.0
0.0008418 -0.0080074 0.0
0.0073970 -0.0075179 0.0
0.0135964 -0.0069549 0.0
0.0193867 -0.0063283 0.0
0.0247205 -0.0056492 0.0
0.0295570 -0.0049299 0.0
0.0338627 -0.0041834 0.0
0.0376122 -0.0034231 0.0
0.0407883 -0.0026622 0.0
0.0433830 -0.0019139 0.0
0.0453969 -0.0011902 0.0
0.0468394 -0.0005023 0.0
0.0477281 0.0001399 0.0
0.0480888 0.0007280 0.0
0.0479542 0.0012556 0.0
0.0473635 0.0017178 0.0
0.0463609 0.0021116 0.0
0.0449949 0.0024358 0.0
0.0433167 0.0026910 0.0
0.0413792 0.0028795 0.0
0.0392354 0.0030047 0.0
0.0369371 0.0030716 0.0
0.0345341 0.0030858 0.0
0.0320726 0.0030538 0.0
0.0295948 0.0029824 0.0
0.0271382 0.0028785 0.0
0.0247346 0.0027490 0.0
0.0224108 0.0026003 0.0
0.0201879 0.0024385 0.0
0.0180818 0.0022688 0.0
0.0161035 0.0020960 0.0
0.0142599 0.0019241 0.0
0.0125535 0.0017562 0.0
0.0109841 0.0015950 0.0
0.0095484 0.0014424 0.0
0.0082412 0.0012998 0.0
0.0070557 0.0011681 0.0
0.0059839 0.0010476 0.0
0.0050175 0.0009380 0.0
0.0041484 0.0008385 0.0
0.0033690 0.0007476 0.0
0.0026729 0.0006631 0.0
0.0020558 0.0005821 0.0
0.0015155 0.0005012 0.0
0.0010525 0.0004169 0.0
0.0006697 0.0003263 0.0
0.0003713 0.0002284 0.0
0.0001612 0.0001268 0.0
0.0000390 0.0000331 0.0
-0.0000053 -0.0000260 0.0
0.0000000 0.0000000 0.0
0.0000000 0.0000000 0.0
0.0000803 -0.0001799 0.0
0.0003255 -0.0004589 0.0
0.0007346 -0.0007575 0.0
0.0012955 -0.0010312 0.0
0.0019858 -0.0012559 0.0
0.0027758 -0.0014197 0.0
0.0036318 -0.0015183 0.0
0.0045192 -0.0015529 0.0
0.0054049 -0.0015283 0.0
0.0062589 -0.0014527 0.0
0.0070560 -0.0013361 0.0
0.0077766 -0.0011896 0.0
0.0084068 -0.0010249 0.0
0.0089391 -0.0008530 0.0
0.0093713 -0.0006838 0.0
0.0097060 -0.0005256 0.0
0.0099499 -0.0003848 0.0
0.0101123 -0.0002654 0.0
0.0102042 -0.0001692 0.0
0.0102368 -0.0000960 0.0
0.0102207 -0.0000434 0.0
0.0101648 -0.0000075 0.0
0.0100751 0.0000168 0.0
0.0099547 0.0000356 0.0
0.0098031 0.0000553 0.0
0.0096159 0.0000820 0.0
0.0093856 0.0001216 0.0
0.0091015 0.0001787 0.0
0.0087504 0.0002573 0.0
0.0083171 0.0003600 0.0
0.0077850 0.0004885 0.0
0.0071369 0.0006437 0.0
0.0063548 0.0008261 0.0
0.0054207 0.0010358 0.0
0.0043164 0.0012731 0.0
0.0030235 0.0015381 0.0
0.0015239 0.0018314 0.0
-0.0002007 0.0021535 0.0
-0.0021681 0.0025047 0.0
-0.0043957 0.0028854 0.0
-0.0068998 0.0032951 0.0
-0.0096956 0.0037331 0.0
-0.0127960 0.0041978 0.0
-0.0162117 0.0046869 0.0
-0.0199502 0.0051972 0.0
-0.0240153 0.0057245 0.0
-0.0284069 0.0062641 0.0
-0.0331199 0.0068103 0.0
-0.0381447 0.0073565 0.0
-0.0434663 0.0078956 0.0
-0.0490646 0.0084201 0.0
-0.0549143 0.0089220 0.0
-0.0609850 0.0093930 0.0
-0.0672420 0.0098251 0.0
-0.0736462 0.0102102 0.0
-0.0801553 0.0105406 0.0
-0.0867239 0.0108094 0.0
-0.0933049 0.0110099 0.0
-0.0998496 0.0111367 0.0
-0.1063087 0.0111851 0.0
-0.1126334 0.0111510 0.0
-0.1187753 0.0110319 0.0
-0.1246874 0.0108256 0.0
-0.1303249 0.0105314 0.0
-0.1356446 0.0101490 0.0
-0.1406064 0.0096792 0.0
-0.1451727 0.0091235 0.0
-0.1493087 0.0084840 0.0
-0.1529828 0.0077634 0.0
-0.1561663 0.0069652 0.0
-0.1588337 0.0060931 0.0
-0.1609623 0.0051515 0.0
-0.1625328 0.0041452 0.0
-0.1635285 0.0030796 0.0
-0.1639359 0.0019604 0.0
-0.1637445 0.0007940 0.0
-0.1629467 -0.0004127 0.0
-0.1615378 -0.0016523 0.0
-0.1595165 -0.0029167 0.0
-0.1568845 -0.0041971 0.0
-0.1536467 -0.0054840 0.0
-0.1498115 -0.0067673 0.0
-0.1453910 -0.0080361 0.0
-0.1404009 -0.0092788 0.0
-0.1348607 -0.0104832 0.0
-0.1287943 -0.0116365 0.0
-0.1222296 -0.0127257 0.0
-0.1151988 -0.0137373 0.0
-0.1077387 -0.0146579 0.0
-0.0998905 -0.0154742 0.0
-0.0916999 -0.0161736 0.0
-0.0832169 -0.0167442 0.0
-0.0744957 -0.0171752 0.0
-0.0655940 -0.0174574 0.0
-0.0565734 -0.0175835 0.0
-0.0474979 -0.0175482 0.0
-0.0384340 -0.0173488 0.0
-0.0294497 -0.0169854 0.0
-0.0206132 -0.0164608 0.0
-0.0119929 -0.0157811 0.0
-0.0036556 -0.0149550 0.0
0.0043343 -0.0139943 0.0
0.0119154 -0.0129134 0.0
0.0190311 -0.0117292 0.0
0.0256297 -0.0104604 0.0
0.0316659 -0.0091275 0.0
0.0371014 -0.0077518 0.0
0.0419054 -0.0063554 0.0
0.0460553 -0.0049603 0.0
0.0495372 -0.0035879 0.0
0.0523461 -0.0022588 0.0
0.0544860 -0.0009919 0.0
0.0559698 0.0001957 0.0
0.0568194 0.0012892 0.0
0.0570650 0.0022763 0.0
0.0567444 0.0031477 0.0
0.0559028 0.0038970 0.0
0.0545912 0.0045209 0.0
0.0528655 0.0050191 0.0
0.0507852 0.0053943 0.0
0.0484115 0.0056519 0.0
0.0458063 0.0057997 0.0
0.0430303 0.0058474 0.0
0.0401417 0.0058063 0.0
0.0371945 0.0056886 0.0
0.0342380 0.0055070 0.0
0.0313155 0.0052744 0.0
0.0284639 0.0050029 0.0
0.0257136 0.0047040 0.0
0.0230883 0.0043881 0.0
0.0206055 0.0040645 0.0
0.0182769 0.0037408 0.0
0.0161091 0.0034237 0.0
0.0141040 0.0031182 0.0
0.0122600 0.0028283 0.0
0.0105724 0.0025568 0.0
0.0090345 0.0023050 0.0
0.0076379 0.0020731 0.0
0.0063740 0.0018602 0.0
0.0052342 0.0016637 0.0
0.0042112 0.0014798 0.0
0.0032993 0.0013033 0.0
0.0024954 0.0011283 0.0
0.0017992 0.0009486 0.0
0.0012129 0.0007592 0.0
0.0007406 0.0005586 0.0
0.0003861 0.0003525 0.0
0.0001507 0.0001591 0.0
0.0000282 0.0000176 0.0
0.0000000 0.0000000 0.0
0.0000000 0.0000000 0.0
0.0001199 -0.0003775 0.0
0.0004554 -0.0008428 0.0
0.0009880 -0.0013141 0.0
0.0016945 -0.0017388 0.0
0.0025448 -0.0020854 0.0
0.0035030 -0.0023365 0.0
0.0045301 -0.0024855 0.0
0.0055861 -0.0025337 0.0
0.0066332 -0.0024887 0.0
0.0076371 -0.0023627 0.0
0.0085692 -0.0021712 0.0
0.0094069 -0.0019317 0.0
0.0101344 -0.0016622 0.0
0.0107426 -0.0013797 0.0
0.0112284 -0.0011000 0.0
0.0115942 -0.0008358 0.0
0.0118466 -0.0005971 0.0
0.0119950 -0.0003903 0.0
0.0120506 -0.0002182 0.0
0.0120247 -0.0000802 0.0
0.0119277 0.0000273 0.0
0.0117676 0.0001108 0.0
0.0115493 0.0001786 0.0
0.0112739 0.0002405 0.0
0.0109380 0.0003067 0.0
0.0105341 0.0003876 0.0
0.0100506 0.0004923 0.0
0.0094722 0.0006289 0.0
0.0087807 0.0008035 0.0
0.0079557 0.0010207 0.0
0.0069750 0.0012834 0.0
0.0058156 0.0015934 0.0
0.0044539 0.0019515 0.0
0.0028661 0.0023580 0.0
0.0010285 0.0028132 0.0
-0.0010824 0.0033172 0.0
-0.0034896 0.0038703 0.0
-0.0062153 0.0044726 0.0
-0.0092804 0.0051237 0.0
-0.0127040 0.0058225 0.0
-0.0165028 0.0065669 0.0
-0.0206900 0.0073537 0.0
-0.0252751 0.0081781 0.0
-0.0302628 0.0090342 0.0
-0.0356521 0.0099141 0.0
-0.0414364 0.0108090 0.0
-0.0476021 0.0117082 0.0
-0.0541293 0.0126004 0.0
-0.0609910 0.0134729 0.0
-0.0681538 0.0143125 0.0
-0.0755780 0.0151056 0.0
-0.0832183 0.0158388 0.0
-0.0910246 0.0164987 0.0
-0.0989433 0.0170729 0.0
-0.1069177 0.0175497 0.0
-0.1148898 0.0179191 0.0
-0.1228011 0.0181721 0.0
-0.1305934 0.0183017 0.0
-0.1382103 0.0183025 0.0
-0.1455974 0.0181707 0.0
-0.1527035 0.0179044 0.0
-0.1594805 0.0175029 0.0
-0.1658845 0.0169675 0.0
-0.1718750 0.0163002 0.0
-0.1774160 0.0155045 0.0
-0.1824753 0.0145847 0.0
-0.1870246 0.0135460 0.0
-0.1910391 0.0123941 0.0
-0.1944978 0.0111353 0.0
-0.1973827 0.0097765 0.0
-0.1996789 0.0083248 0.0
-0.2013741 0.0067876 0.0
-0.2024587 0.0051729 0.0
-0.2029254 0.0034889 0.0
-0.2027691 0.0017441 0.0
-0.2019869 -0.0000525 0.0
-0.2005777 -0.0018913 0.0
-0.1985426 -0.0037621 0.0
-0.1958847 -0.0056543 0.0
-0.1926092 -0.0075562 0.0
-0.1887235 -0.0094556 0.0
-0.1842375 -0.0113394 0.0
-0.1791634 -0.0131934 0.0
-0.1735164 -0.0150029 0.0
-0.1673146 -0.0167522 0.0
-0.1605795 -0.0184248 0.0
-0.1533359 -0.0200036 0.0
-0.1456125 -0.0214714 0.0
-0.1374419 -0.0228105 0.0
-0.1288609 -0.0240034 0.0
-0.1199105 -0.0250333 0.0
-0.1106359 -0.0258842 0.0
-0.1010866 -0.0265412 0.0
-0.0913162 -0.0269916 0.0
-0.0813821 -0.0272245 0.0
-0.0713448 -0.0272322 0.0
-0.0612680 -0.0270096 0.0
-0.0512174 -0.0265554 0.0
-0.0412602 -0.0258718 0.0
-0.0314643 -0.0249650 0.0
-0.0218970 -0.0238451 0.0
-0.0126247 -0.0225259 0.0
-0.0037114 -0.0210251 0.0
0.0047819 -0.0193635 0.0
0.0127984 -0.0175647 0.0
0.0202860 -0.0156551 0.0
0.0271983 -0.0136625 0.0
0.0334949 -0.0116161 0.0
0.0391425 -0.0095457 0.0
0.0441148 -0.0074810 0.0
0.0483933 -0.0054511 0.0
0.0519674 -0.0034839 0.0
0.0548349 -0.0016054 0.0
0.0570019 0.0001605 0.0
0.0584832 0.0017928 0.0
0.0593020 0.0032737 0.0
0.0594900 0.0045890 0.0
0.0590868 0.0057283 0.0
0.0581394 0.0066855 0.0
0.0567013 0.0074588 0.0
0.0548312 0.0080504 0.0
0.0525920 0.0084669 0.0
0.0500488 0.0087184 0.0
0.0472671 0.0088182 0.0
0.0443117 0.0087822 0.0
0.0412442 0.0086280 0.0
0.0381219 0.0083744 0.0
0.0349968 0.0080404 0.0
0.0319142 0.0076445 0.0
0.0289122 0.0072041 0.0
0.0260220 0.0067354 0.0
0.0232674 0.0062526 0.0
0.0206656 0.0057679 0.0
0.0182276 0.0052915 0.0
0.0159590 0.0048314 0.0
0.0138607 0.0043937 0.0
0.0119304 0.0039822 0.0
0.0101626 0.0035985 0.0
0.0085507 0.0032422 0.0
0.0070871 0.0029104 0.0
0.0057649 0.0025980 0.0
0.0045784 0.0022978 0.0
0.0035239 0.0020012 0.0
0.0026006 0.0016994 0.0
0.0018103 0.0013849 0.0
0.0011570 0.0010552 0.0
0.0006462 0.0007167 0.0
0.0002826 0.0003911 0.0
0.0000682 0.0001247 0.0
0.0000000 0.0000000 0.0
0.0000000 0.0000000 0.0
0.0001522 -0.0006353 0.0
0.0005659 -0.0013271 0.0
0.0012069 -0.0019966 0.0
0.0020399 -0.0025879 0.0
0.0030262 -0.0030644 0.0
0.0041230 -0.0034049 0.0
0.0052856 -0.0036014 0.0
0.0064694 -0.0036560 0.0
0.0076328 -0.0035794 0.0
0.0087385 -0.0033888 0.0
0.0097554 -0.0031059 0.0
0.0106595 -0.0027548 0.0
0.0114339 -0.0023606 0.0
0.0120687 -0.0019470 0.0
0.0125606 -0.0015354 0.0
0.0129116 -0.0011438 0.0
0.0131281 -0.0007856 0.0
0.0132191 -0.0004694 0.0
0.0131951 -0.0001990 0.0
0.0130665 0.0000269 0.0
0.0128420 0.0002137 0.0
0.0125274 0.0003708 0.0
0.0121249 0.0005106 0.0
0.0116322 0.0006470 0.0
0.0110419 0.0007951 0.0
0.0103419 0.0009694 0.0
0.0095156 0.0011835 0.0
0.0085423 0.0014486 0.0
0.0073982 0.0017738 0.0
0.0060572 0.0021657 0.0
0.0044917 0.0026286 0.0
0.0026731 0.0031648 0.0
0.0005725 0.0037756 0.0
-0.0018387 0.0044612 0.0
-0.0045887 0.0052216 0.0
-0.0077045 0.0060562 0.0
-0.0112119 0.0069643 0.0
-0.0151340 0.0079443 0.0
-0.0194915 0.0089934 0.0
-0.0243006 0.0101077 0.0
-0.0295730 0.0112811 0.0
-0.0353146 0.0125055 0.0
-0.0415243 0.0137706 0.0
-0.0481938 0.0150639 0.0
-0.0553066 0.0163707 0.0
-0.0628377 0.0176745 0.0
-0.0707540 0.0189571 0.0
-0.0790142 0.0201992 0.0
-0.0875696 0.0213810 0.0
-0.0963651 0.0224826 0.0
-0.1053404 0.0234846 0.0
-0.1144313 0.0243686 0.0
-0.1235714 0.0251180 0.0